 Entering Gaussian System, Link 0=g09
 Initial command:
 /usr/local/gaussian/g09.d01.em64t.legacy.linda/g09/l1.exe "/tmp/rdj3/g09-20678/Gau-26800.inp" -scrdir="/tmp/rdj3/g09-20678/"
 Entering Link 1 = /usr/local/gaussian/g09.d01.em64t.legacy.linda/g09/l1.exe PID=     26801.
  
 Copyright (c) 1988,1990,1992,1993,1995,1998,2003,2009,2013,
            Gaussian, Inc.  All Rights Reserved.
  
 This is part of the Gaussian(R) 09 program.  It is based on
 the Gaussian(R) 03 system (copyright 2003, Gaussian, Inc.),
 the Gaussian(R) 98 system (copyright 1998, Gaussian, Inc.),
 the Gaussian(R) 94 system (copyright 1995, Gaussian, Inc.),
 the Gaussian 92(TM) system (copyright 1992, Gaussian, Inc.),
 the Gaussian 90(TM) system (copyright 1990, Gaussian, Inc.),
 the Gaussian 88(TM) system (copyright 1988, Gaussian, Inc.),
 the Gaussian 86(TM) system (copyright 1986, Carnegie Mellon
 University), and the Gaussian 82(TM) system (copyright 1983,
 Carnegie Mellon University). Gaussian is a federally registered
 trademark of Gaussian, Inc.
  
 This software contains proprietary and confidential information,
 including trade secrets, belonging to Gaussian, Inc.
  
 This software is provided under written license and may be
 used, copied, transmitted, or stored only in accord with that
 written license.
  
 The following legend is applicable only to US Government
 contracts under FAR:
  
                    RESTRICTED RIGHTS LEGEND
  
 Use, reproduction and disclosure by the US Government is
 subject to restrictions as set forth in subparagraphs (a)
 and (c) of the Commercial Computer Software - Restricted
 Rights clause in FAR 52.227-19.
  
 Gaussian, Inc.
 340 Quinnipiac St., Bldg. 40, Wallingford CT 06492
  
  
 ---------------------------------------------------------------
 Warning -- This program may not be used in any manner that
 competes with the business of Gaussian, Inc. or will provide
 assistance to any competitor of Gaussian, Inc.  The licensee
 of this program is prohibited from giving any competitor of
 Gaussian, Inc. access to this program.  By using this program,
 the user acknowledges that Gaussian, Inc. is engaged in the
 business of creating and licensing software in the field of
 computational chemistry and represents and warrants to the
 licensee that it is not a competitor of Gaussian, Inc. and that
 it will not use this program in any manner prohibited above.
 ---------------------------------------------------------------
  

 Cite this work as:
 Gaussian 09, Revision D.01,
 M. J. Frisch, G. W. Trucks, H. B. Schlegel, G. E. Scuseria, 
 M. A. Robb, J. R. Cheeseman, G. Scalmani, V. Barone, B. Mennucci, 
 G. A. Petersson, H. Nakatsuji, M. Caricato, X. Li, H. P. Hratchian, 
 A. F. Izmaylov, J. Bloino, G. Zheng, J. L. Sonnenberg, M. Hada, 
 M. Ehara, K. Toyota, R. Fukuda, J. Hasegawa, M. Ishida, T. Nakajima, 
 Y. Honda, O. Kitao, H. Nakai, T. Vreven, J. A. Montgomery, Jr., 
 J. E. Peralta, F. Ogliaro, M. Bearpark, J. J. Heyd, E. Brothers, 
 K. N. Kudin, V. N. Staroverov, T. Keith, R. Kobayashi, J. Normand, 
 K. Raghavachari, A. Rendell, J. C. Burant, S. S. Iyengar, J. Tomasi, 
 M. Cossi, N. Rega, J. M. Millam, M. Klene, J. E. Knox, J. B. Cross, 
 V. Bakken, C. Adamo, J. Jaramillo, R. Gomperts, R. E. Stratmann, 
 O. Yazyev, A. J. Austin, R. Cammi, C. Pomelli, J. W. Ochterski, 
 R. L. Martin, K. Morokuma, V. G. Zakrzewski, G. A. Voth, 
 P. Salvador, J. J. Dannenberg, S. Dapprich, A. D. Daniels, 
 O. Farkas, J. B. Foresman, J. V. Ortiz, J. Cioslowski, 
 and D. J. Fox, Gaussian, Inc., Wallingford CT, 2013.
 
 ******************************************
 Gaussian 09:  EM64L-G09RevD.01 24-Apr-2013
                 7-Feb-2014 
 ******************************************
 %NProc=8
 Will use up to    8 processors via shared memory.
 %mem=424000000
 --------------------------------------
 #MP2=FULL/aug-cc-pVTZ density opt freq
 --------------------------------------
 1/18=20,19=15,38=1/1,3;
 2/9=110,12=2,17=6,18=5,40=1/2;
 3/5=16,6=1,7=10,11=9,16=1,25=1,30=1,71=1/1,2,3;
 4//1;
 5/5=2,38=5/2;
 8/6=4,10=90/1;
 9/15=2,16=-3/6;
 10/5=1/2;
 6/7=2,8=2,9=2,10=2,22=-1/1;
 7/12=2/1,2,3,16;
 1/18=20,19=15/3(2);
 2/9=110/2;
 99//99;
 2/9=110/2;
 3/5=16,6=1,7=10,11=9,16=1,25=1,30=1,71=1/1,2,3;
 4/5=5,16=3,69=1/1;
 5/5=2,38=5/2;
 8/6=4,10=90/1;
 9/15=2,16=-3/6;
 10/5=1/2;
 7/12=2/1,2,3,16;
 1/18=20,19=15/3(-8);
 2/9=110/2;
 6/7=2,8=2,9=2,10=2,22=-1/1;
 99//99;
 --------------------------------------------------------------------
 c2h5cl Ethyl chloride casno=75003 state=1 config=1 method=2 basis=18
 --------------------------------------------------------------------
 Symbolic Z-matrix:
 Charge =  0 Multiplicity = 1
 C
 C                    1    rcc
 H                    1    rh1      2    ah1
 H                    1    rh2      2    ah2      3    d2       0
 H                    1    rh2      2    ah2      3    -d2      0
 Cl                   2    rcl      1    acl      3     180.     0
 H                    2    rh3      1    ah3      6    d3       0
 H                    2    rh3      1    ah3      6    -d3      0
       Variables:
  rcc                   1.5169                   
  rh1                   1.0863                   
  rh2                   1.0832                   
  rcl                   1.7988                   
  rh3                   1.0789                   
  ah1                 109.2508                   
  ah2                 111.0477                   
  acl                 111.5273                   
  ah3                 111.7738                   
  d2                  119.5781                   
  d3                  118.801                    
 

 GradGradGradGradGradGradGradGradGradGradGradGradGradGradGradGradGradGrad
 Berny optimization.
 Initialization pass.
                           ----------------------------
                           !    Initial Parameters    !
                           ! (Angstroms and Degrees)  !
 --------------------------                            --------------------------
 ! Name  Definition              Value          Derivative Info.                !
 --------------------------------------------------------------------------------
 ! R1    R(1,2)                  1.5169         estimate D2E/DX2                !
 ! R2    R(1,3)                  1.0863         estimate D2E/DX2                !
 ! R3    R(1,4)                  1.0832         estimate D2E/DX2                !
 ! R4    R(1,5)                  1.0832         estimate D2E/DX2                !
 ! R5    R(2,6)                  1.7988         estimate D2E/DX2                !
 ! R6    R(2,7)                  1.0789         estimate D2E/DX2                !
 ! R7    R(2,8)                  1.0789         estimate D2E/DX2                !
 ! A1    A(2,1,3)              109.2508         estimate D2E/DX2                !
 ! A2    A(2,1,4)              111.0477         estimate D2E/DX2                !
 ! A3    A(2,1,5)              111.0477         estimate D2E/DX2                !
 ! A4    A(3,1,4)              108.4518         estimate D2E/DX2                !
 ! A5    A(3,1,5)              108.4518         estimate D2E/DX2                !
 ! A6    A(4,1,5)              108.5169         estimate D2E/DX2                !
 ! A7    A(1,2,6)              111.5273         estimate D2E/DX2                !
 ! A8    A(1,2,7)              111.7738         estimate D2E/DX2                !
 ! A9    A(1,2,8)              111.7738         estimate D2E/DX2                !
 ! A10   A(6,2,7)              106.2645         estimate D2E/DX2                !
 ! A11   A(6,2,8)              106.2645         estimate D2E/DX2                !
 ! A12   A(7,2,8)              108.9337         estimate D2E/DX2                !
 ! D1    D(3,1,2,6)            180.0            estimate D2E/DX2                !
 ! D2    D(3,1,2,7)            -61.199          estimate D2E/DX2                !
 ! D3    D(3,1,2,8)             61.199          estimate D2E/DX2                !
 ! D4    D(4,1,2,6)            -60.4219         estimate D2E/DX2                !
 ! D5    D(4,1,2,7)             58.3791         estimate D2E/DX2                !
 ! D6    D(4,1,2,8)           -179.2229         estimate D2E/DX2                !
 ! D7    D(5,1,2,6)             60.4219         estimate D2E/DX2                !
 ! D8    D(5,1,2,7)            179.2229         estimate D2E/DX2                !
 ! D9    D(5,1,2,8)            -58.3791         estimate D2E/DX2                !
 --------------------------------------------------------------------------------
 Trust Radius=3.00D-01 FncErr=1.00D-07 GrdErr=1.00D-07
 Number of steps in this run=     38 maximum allowed number of steps=    100.
 GradGradGradGradGradGradGradGradGradGradGradGradGradGradGradGradGradGrad

                          Input orientation:                          
 ---------------------------------------------------------------------
 Center     Atomic      Atomic             Coordinates (Angstroms)
 Number     Number       Type             X           Y           Z
 ---------------------------------------------------------------------
      1          6           0        0.000000    0.000000    0.000000
      2          6           0        0.000000    0.000000    1.516900
      3          1           0        1.025559    0.000000   -0.358157
      4          1           0       -0.499005   -0.879190   -0.389026
      5          1           0       -0.499005    0.879190   -0.389026
      6         17           0       -1.673321    0.000000    2.176960
      7          1           0        0.482697   -0.877986    1.917111
      8          1           0        0.482697    0.877986    1.917111
 ---------------------------------------------------------------------
                    Distance matrix (angstroms):
                    1          2          3          4          5
     1  C    0.000000
     2  C    1.516900   0.000000
     3  H    1.086300   2.137197   0.000000
     4  H    1.083200   2.157437   1.760177   0.000000
     5  H    1.083200   2.157437   1.760177   1.758380   0.000000
     6  Cl   2.745752   1.798800   3.702806   2.955719   2.955719
     7  H    2.163139   1.078900   2.498480   2.506393   3.060992
     8  H    2.163139   1.078900   2.498480   3.060992   2.506393
                    6          7          8
     6  Cl   0.000000
     7  H    2.342391   0.000000
     8  H    2.342391   1.755973   0.000000
 Stoichiometry    C2H5Cl
 Framework group  CS[SG(C2HCl),X(H4)]
 Deg. of freedom    11
 Full point group                 CS      NOp   2
 Largest Abelian subgroup         CS      NOp   2
 Largest concise Abelian subgroup CS      NOp   2
                         Standard orientation:                         
 ---------------------------------------------------------------------
 Center     Atomic      Atomic             Coordinates (Angstroms)
 Number     Number       Type             X           Y           Z
 ---------------------------------------------------------------------
      1          6           0        1.509254    0.659438    0.000000
      2          6           0        0.000000    0.811547    0.000000
      3          1           0        1.968445    1.643913    0.000000
      4          1           0        1.846281    0.123938    0.879190
      5          1           0        1.846281    0.123938   -0.879190
      6         17           0       -0.824527   -0.787152    0.000000
      7          1           0       -0.349791    1.331942    0.877986
      8          1           0       -0.349791    1.331942   -0.877986
 ---------------------------------------------------------------------
 Rotational constants (GHZ):     31.8680267      5.4537141      4.9400805
 Standard basis: Aug-CC-pVTZ (5D, 7F)
 There are   182 symmetry adapted cartesian basis functions of A'  symmetry.
 There are   112 symmetry adapted cartesian basis functions of A"  symmetry.
 There are   155 symmetry adapted basis functions of A'  symmetry.
 There are   102 symmetry adapted basis functions of A"  symmetry.
   257 basis functions,   393 primitive gaussians,   294 cartesian basis functions
    17 alpha electrons       17 beta electrons
       nuclear repulsion energy       102.8519856886 Hartrees.
 NAtoms=    8 NActive=    8 NUniq=    6 SFac= 1.78D+00 NAtFMM=   60 NAOKFM=F Big=F
 Integral buffers will be    131072 words long.
 Raffenetti 1 integral format.
 Two-electron integral symmetry is turned on.
 One-electron integrals computed using PRISM.
 NBasis=   257 RedAO= T EigKep=  3.54D-05  NBF=   155   102
 NBsUse=   257 1.00D-06 EigRej= -1.00D+00 NBFU=   155   102
 ExpMin= 2.53D-02 ExpMax= 4.56D+05 ExpMxC= 1.44D+03 IAcc=3 IRadAn=         5 AccDes= 0.00D+00
 Harris functional with IExCor=  205 and IRadAn=       5 diagonalized for initial guess.
 HarFok:  IExCor=  205 AccDes= 0.00D+00 IRadAn=         5 IDoV= 1 UseB2=F ITyADJ=14
 ICtDFT=  3500011 ScaDFX=  1.000000  1.000000  1.000000  1.000000
 FoFCou: FMM=F IPFlag=           0 FMFlag=      100000 FMFlg1=           0
         NFxFlg=           0 DoJE=T BraDBF=F KetDBF=T FulRan=T
         wScrn=  0.000000 ICntrl=     500 IOpCl=  0 I1Cent=   200000004 NGrid=           0
         NMat0=    1 NMatS0=      1 NMatT0=    0 NMatD0=    1 NMtDS0=    0 NMtDT0=    0
 Petite list used in FoFCou.
 Initial guess orbital symmetries:
       Occupied  (A') (A') (A') (A') (A') (A') (A") (A') (A') (A')
                 (A") (A') (A') (A") (A') (A') (A")
       Virtual   (A') (A') (A') (A") (A') (A") (A') (A') (A') (A")
                 (A') (A") (A') (A') (A') (A") (A') (A") (A') (A")
                 (A') (A") (A') (A') (A') (A') (A') (A") (A') (A")
                 (A") (A') (A') (A") (A') (A") (A') (A") (A') (A")
                 (A') (A') (A") (A') (A") (A') (A') (A') (A") (A")
                 (A') (A') (A") (A') (A') (A') (A') (A") (A') (A')
                 (A') (A") (A") (A') (A") (A") (A') (A') (A") (A")
                 (A') (A") (A') (A") (A') (A') (A') (A") (A') (A')
                 (A") (A') (A') (A') (A") (A") (A") (A') (A") (A')
                 (A") (A') (A') (A") (A') (A") (A") (A') (A') (A")
                 (A') (A") (A') (A") (A') (A') (A') (A") (A') (A")
                 (A') (A') (A") (A') (A") (A') (A") (A') (A") (A')
                 (A') (A") (A') (A') (A') (A") (A') (A') (A") (A")
                 (A') (A') (A") (A") (A") (A') (A') (A") (A') (A')
                 (A") (A') (A') (A") (A") (A') (A") (A') (A') (A")
                 (A') (A') (A") (A') (A') (A') (A') (A") (A') (A')
                 (A") (A') (A") (A') (A") (A') (A') (A") (A') (A")
                 (A') (A") (A") (A') (A") (A') (A") (A') (A') (A")
                 (A') (A") (A') (A") (A") (A') (A") (A') (A') (A")
                 (A") (A') (A") (A') (A") (A') (A') (A") (A') (A')
                 (A") (A') (A') (A') (A') (A") (A") (A') (A') (A')
                 (A') (A") (A") (A') (A") (A') (A") (A') (A') (A")
                 (A") (A') (A") (A') (A") (A') (A") (A') (A') (A")
                 (A') (A') (A") (A') (A") (A') (A") (A') (A') (A')
 The electronic state of the initial guess is 1-A'.
 Requested convergence on RMS density matrix=1.00D-08 within 128 cycles.
 Requested convergence on MAX density matrix=1.00D-06.
 Requested convergence on             energy=1.00D-06.
 No special actions if energy rises.
 Initial convergence to 1.0D-05 achieved.  Increase integral accuracy.
 SCF Done:  E(RHF) =  -538.200584247     A.U. after   12 cycles
            NFock= 12  Conv=0.19D-08     -V/T= 2.0001
 Range of M.O.s used for correlation:     1   257
 NBasis=   257 NAE=    17 NBE=    17 NFC=     0 NFV=     0
 NROrb=    257 NOA=    17 NOB=    17 NVA=   240 NVB=   240

 **** Warning!!: The largest alpha MO coefficient is  0.40218723D+02

 Fully direct method using O(ONN) memory.
 JobTyp=1 Pass  1:  I=   1 to   4 NPSUse=  8 ParTrn=T ParDer=T DoDerP=T.
 JobTyp=1 Pass  2:  I=   5 to   8 NPSUse=  8 ParTrn=T ParDer=T DoDerP=T.
 JobTyp=1 Pass  3:  I=   9 to  12 NPSUse=  8 ParTrn=T ParDer=T DoDerP=T.
 JobTyp=1 Pass  4:  I=  13 to  16 NPSUse=  8 ParTrn=T ParDer=T DoDerP=T.
 JobTyp=1 Pass  5:  I=  17 to  17 NPSUse=  8 ParTrn=T ParDer=T DoDerP=T.
 Spin components of T(2) and E(2):
     alpha-alpha T2 =       0.2298293549D-01 E2=     -0.7101621765D-01
     alpha-beta  T2 =       0.1401487833D+00 E2=     -0.4892356606D+00
     beta-beta   T2 =       0.2298293549D-01 E2=     -0.7101621765D-01
 ANorm=    0.1089088910D+01
 E2 =    -0.6312680959D+00 EUMP2 =    -0.53883185234328D+03
          IDoAtm=11111111
          Differentiating once with respect to electric field.
                with respect to dipole field.
          Differentiating once with respect to nuclear coordinates.
          There are     1 degrees of freedom in the 1st order CPHF.  IDoFFX=0 NUNeed=     1.
 LinEq1:  Iter=  0 NonCon=     1 RMS=2.10D-03 Max=2.48D-02 NDo=     1
 AX will form     1 AO Fock derivatives at one time.
 LinEq1:  Iter=  1 NonCon=     1 RMS=7.34D-04 Max=1.10D-02 NDo=     1
 LinEq1:  Iter=  2 NonCon=     1 RMS=1.50D-04 Max=1.65D-03 NDo=     1
 LinEq1:  Iter=  3 NonCon=     1 RMS=3.99D-05 Max=4.55D-04 NDo=     1
 LinEq1:  Iter=  4 NonCon=     1 RMS=9.21D-06 Max=8.40D-05 NDo=     1
 LinEq1:  Iter=  5 NonCon=     1 RMS=2.42D-06 Max=5.28D-05 NDo=     1
 LinEq1:  Iter=  6 NonCon=     1 RMS=5.34D-07 Max=1.17D-05 NDo=     1
 LinEq1:  Iter=  7 NonCon=     1 RMS=1.40D-07 Max=3.20D-06 NDo=     1
 LinEq1:  Iter=  8 NonCon=     1 RMS=2.82D-08 Max=2.79D-07 NDo=     1
 LinEq1:  Iter=  9 NonCon=     1 RMS=5.55D-09 Max=6.88D-08 NDo=     1
 LinEq1:  Iter= 10 NonCon=     1 RMS=1.23D-09 Max=1.15D-08 NDo=     1
 LinEq1:  Iter= 11 NonCon=     1 RMS=2.21D-10 Max=2.54D-09 NDo=     1
 LinEq1:  Iter= 12 NonCon=     0 RMS=3.92D-11 Max=7.30D-10 NDo=     1
 Linear equations converged to 1.000D-10 1.000D-09 after    12 iterations.
 End of Minotr F.D. properties file   721 does not exist.
 End of Minotr F.D. properties file   722 does not exist.
 End of Minotr F.D. properties file   788 does not exist.

 **********************************************************************

            Population analysis using the MP2 density.

 **********************************************************************

 Orbital symmetries:
       Occupied  (A') (A') (A') (A') (A') (A') (A") (A') (A') (A')
                 (A") (A') (A') (A") (A') (A') (A")
       Virtual   (A') (A') (A") (A') (A") (A') (A') (A') (A") (A')
                 (A') (A") (A') (A') (A") (A') (A') (A") (A') (A")
                 (A') (A") (A') (A') (A') (A') (A") (A') (A") (A')
                 (A") (A') (A") (A') (A") (A') (A') (A") (A') (A")
                 (A') (A') (A") (A') (A') (A") (A') (A") (A') (A")
                 (A') (A') (A") (A') (A') (A') (A') (A") (A') (A")
                 (A') (A") (A') (A") (A') (A") (A') (A") (A') (A")
                 (A") (A') (A') (A') (A') (A") (A') (A") (A') (A")
                 (A') (A") (A') (A") (A') (A') (A") (A") (A") (A')
                 (A') (A') (A') (A") (A') (A") (A') (A") (A') (A")
                 (A") (A') (A') (A") (A') (A') (A") (A') (A') (A")
                 (A') (A") (A') (A") (A') (A') (A") (A') (A") (A')
                 (A') (A") (A') (A') (A') (A") (A') (A") (A') (A")
                 (A') (A") (A') (A") (A") (A') (A') (A") (A') (A')
                 (A") (A') (A") (A') (A") (A') (A") (A') (A') (A")
                 (A') (A') (A") (A') (A') (A') (A") (A') (A') (A')
                 (A") (A") (A') (A') (A") (A') (A') (A") (A') (A")
                 (A") (A') (A") (A') (A") (A') (A') (A") (A") (A')
                 (A') (A") (A") (A') (A') (A") (A") (A') (A") (A')
                 (A") (A") (A') (A') (A") (A') (A') (A") (A') (A')
                 (A") (A') (A') (A') (A") (A') (A") (A') (A') (A")
                 (A') (A') (A") (A") (A') (A') (A") (A') (A") (A')
                 (A") (A') (A") (A') (A") (A') (A") (A') (A') (A")
                 (A') (A') (A") (A') (A") (A') (A") (A') (A') (A')
 The electronic state is 1-A'.
 Alpha  occ. eigenvalues -- -104.81974 -11.29270 -11.23153 -10.54416  -8.01097
 Alpha  occ. eigenvalues --   -8.00923  -8.00921  -1.13432  -1.00183  -0.84664
 Alpha  occ. eigenvalues --   -0.65219  -0.61126  -0.56136  -0.53211  -0.50665
 Alpha  occ. eigenvalues --   -0.43111  -0.43086
 Alpha virt. eigenvalues --    0.02863   0.04052   0.04135   0.04916   0.06425
 Alpha virt. eigenvalues --    0.08241   0.10008   0.11060   0.12056   0.12542
 Alpha virt. eigenvalues --    0.13506   0.14625   0.14889   0.16224   0.16311
 Alpha virt. eigenvalues --    0.17634   0.20747   0.21862   0.22656   0.24166
 Alpha virt. eigenvalues --    0.27360   0.27911   0.28375   0.30120   0.30771
 Alpha virt. eigenvalues --    0.32037   0.33423   0.33932   0.35680   0.36215
 Alpha virt. eigenvalues --    0.36739   0.37326   0.39064   0.40088   0.40820
 Alpha virt. eigenvalues --    0.40944   0.43341   0.43446   0.43493   0.43969
 Alpha virt. eigenvalues --    0.45910   0.46799   0.47600   0.47837   0.48799
 Alpha virt. eigenvalues --    0.49798   0.51041   0.51131   0.53529   0.54370
 Alpha virt. eigenvalues --    0.56564   0.58628   0.58803   0.61813   0.70607
 Alpha virt. eigenvalues --    0.72359   0.76465   0.77600   0.79565   0.79711
 Alpha virt. eigenvalues --    0.81582   0.81976   0.83152   0.85364   0.86085
 Alpha virt. eigenvalues --    0.86518   0.88470   0.88791   0.89823   0.92024
 Alpha virt. eigenvalues --    0.93621   0.93867   0.94395   0.95451   0.96027
 Alpha virt. eigenvalues --    0.97139   0.98668   1.02318   1.03003   1.05559
 Alpha virt. eigenvalues --    1.06071   1.07362   1.07799   1.08631   1.08688
 Alpha virt. eigenvalues --    1.09521   1.11619   1.14009   1.14567   1.15462
 Alpha virt. eigenvalues --    1.16246   1.19038   1.20768   1.22751   1.25029
 Alpha virt. eigenvalues --    1.25540   1.27165   1.29861   1.33803   1.36641
 Alpha virt. eigenvalues --    1.37205   1.39073   1.40861   1.41705   1.43766
 Alpha virt. eigenvalues --    1.45298   1.51869   1.52590   1.58267   1.60476
 Alpha virt. eigenvalues --    1.61047   1.65027   1.65550   1.66097   1.66362
 Alpha virt. eigenvalues --    1.67639   1.68234   1.69298   1.74438   1.74919
 Alpha virt. eigenvalues --    1.78295   1.79183   1.80405   1.83711   1.84699
 Alpha virt. eigenvalues --    1.87487   1.89138   1.92302   1.94375   1.96531
 Alpha virt. eigenvalues --    1.97034   2.01940   2.02967   2.04467   2.09474
 Alpha virt. eigenvalues --    2.11868   2.18861   2.21652   2.23422   2.24565
 Alpha virt. eigenvalues --    2.25513   2.30415   2.35290   2.36110   2.38511
 Alpha virt. eigenvalues --    2.58131   2.66880   2.68056   2.73241   2.75482
 Alpha virt. eigenvalues --    2.76618   2.87066   2.99441   3.04281   3.07416
 Alpha virt. eigenvalues --    3.11580   3.15427   3.15437   3.19358   3.21071
 Alpha virt. eigenvalues --    3.24848   3.26881   3.27502   3.31597   3.39479
 Alpha virt. eigenvalues --    3.40437   3.43807   3.43851   3.53744   3.57726
 Alpha virt. eigenvalues --    3.58649   3.59813   3.62805   3.63342   3.68983
 Alpha virt. eigenvalues --    3.71559   3.71653   3.73636   3.80700   3.81731
 Alpha virt. eigenvalues --    3.86329   3.89534   3.94406   3.95329   3.96542
 Alpha virt. eigenvalues --    3.97332   4.03572   4.09372   4.12815   4.13984
 Alpha virt. eigenvalues --    4.17205   4.17953   4.21349   4.23136   4.31082
 Alpha virt. eigenvalues --    4.37512   4.40827   4.42997   4.52880   4.58090
 Alpha virt. eigenvalues --    4.62808   4.64603   4.72982   4.78106   4.78966
 Alpha virt. eigenvalues --    4.80758   4.83077   4.87507   4.91907   4.97525
 Alpha virt. eigenvalues --    4.98602   5.02252   5.06864   5.11987   5.13446
 Alpha virt. eigenvalues --    5.15084   5.26856   5.31145   5.32581   5.36880
 Alpha virt. eigenvalues --    5.42910   5.48543   5.53919   5.55011   5.70064
 Alpha virt. eigenvalues --    5.75810   5.80938   5.92738   5.99409   6.03454
 Alpha virt. eigenvalues --    6.11681   6.18504   6.22467   6.26998   6.65838
 Alpha virt. eigenvalues --    6.72038   6.77568   7.80331  16.88759  17.97167
          Condensed to atoms (all electrons):
               1          2          3          4          5          6
     1  C    7.041736  -0.531894   0.126085   0.137701   0.137701   0.017104
     2  C   -0.531894   7.021912   0.019956  -0.016455  -0.016455  -0.143128
     3  H    0.126085   0.019956   0.593687  -0.023611  -0.023611   0.008812
     4  H    0.137701  -0.016455  -0.023611   0.568771   0.005461  -0.009596
     5  H    0.137701  -0.016455  -0.023611   0.005461   0.568771  -0.009596
     6  Cl   0.017104  -0.143128   0.008812  -0.009596  -0.009596  17.433706
     7  H    0.001062   0.028285  -0.007427  -0.004839   0.009982  -0.020293
     8  H    0.001062   0.028285  -0.007427   0.009982  -0.004839  -0.020293
               7          8
     1  C    0.001062   0.001062
     2  C    0.028285   0.028285
     3  H   -0.007427  -0.007427
     4  H   -0.004839   0.009982
     5  H    0.009982  -0.004839
     6  Cl  -0.020293  -0.020293
     7  H    0.715910  -0.022214
     8  H   -0.022214   0.715910
 Mulliken charges:
               1
     1  C   -0.930556
     2  C   -0.390506
     3  H    0.313537
     4  H    0.332585
     5  H    0.332585
     6  Cl  -0.256715
     7  H    0.299535
     8  H    0.299535
 Sum of Mulliken charges =   0.00000
 Mulliken charges with hydrogens summed into heavy atoms:
               1
     1  C    0.048152
     2  C    0.208564
     6  Cl  -0.256715
 Electronic spatial extent (au):  <R**2>=            283.0257
 Charge=              0.0000 electrons
 Dipole moment (field-independent basis, Debye):
    X=              1.1376    Y=              1.7906    Z=              0.0000  Tot=              2.1214
 Quadrupole moment (field-independent basis, Debye-Ang):
   XX=            -27.2898   YY=            -26.0170   ZZ=            -26.5740
   XY=             -0.2568   XZ=              0.0000   YZ=              0.0000
 Traceless Quadrupole moment (field-independent basis, Debye-Ang):
   XX=             -0.6629   YY=              0.6100   ZZ=              0.0529
   XY=             -0.2568   XZ=              0.0000   YZ=              0.0000
 Octapole moment (field-independent basis, Debye-Ang**2):
  XXX=             -1.0057  YYY=             -1.3797  ZZZ=              0.0000  XYY=             -1.6875
  XXY=             -0.5076  XXZ=              0.0000  XZZ=             -0.3326  YZZ=              0.4823
  YYZ=              0.0000  XYZ=              0.0000
 Hexadecapole moment (field-independent basis, Debye-Ang**3):
 XXXX=           -209.5288 YYYY=           -134.4784 ZZZZ=            -43.2329 XXXY=            -46.1745
 XXXZ=              0.0000 YYYX=            -42.2229 YYYZ=              0.0000 ZZZX=              0.0000
 ZZZY=              0.0000 XXYY=            -54.1522 XXZZ=            -41.0257 YYZZ=            -30.3535
 XXYZ=              0.0000 YYXZ=              0.0000 ZZXY=            -17.7487
 N-N= 1.028519856886D+02 E-N=-1.482688919524D+03  KE= 5.383185180076D+02
 Symmetry A'   KE= 4.884736200040D+02
 Symmetry A"   KE= 4.984489800355D+01
 Calling FoFJK, ICntrl=  10002127 FMM=F ISym2X=1 I1Cent= 0 IOpClX= 0 NMat=1 NMatS=1 NMatT=0.
 ***** Axes restored to original set *****
 -------------------------------------------------------------------
 Center     Atomic                   Forces (Hartrees/Bohr)
 Number     Number              X              Y              Z
 -------------------------------------------------------------------
      1        6          -0.000041239    0.000000000    0.007385005
      2        6          -0.006876088    0.000000000   -0.005909996
      3        1           0.001486730    0.000000000   -0.000021819
      4        1          -0.001137745   -0.001525681    0.000266379
      5        1          -0.001137745    0.001525681    0.000266379
      6       17           0.005975371    0.000000000   -0.003476482
      7        1           0.000865358   -0.002739089    0.000745267
      8        1           0.000865358    0.002739089    0.000745267
 -------------------------------------------------------------------
 Cartesian Forces:  Max     0.007385005 RMS     0.002970343

 GradGradGradGradGradGradGradGradGradGradGradGradGradGradGradGradGradGrad
 Berny optimization.
 FormGI is forming the generalized inverse of G from B-inverse, IUseBI=4.
 Internal  Forces:  Max     0.007895944 RMS     0.002295086
 Search for a local minimum.
 Step number   1 out of a maximum of   38
 All quantities printed in internal units (Hartrees-Bohrs-Radians)
 Mixed Optimization -- RFO/linear search
 Second derivative matrix not updated -- first step.
 ITU=  0
     Eigenvalues ---    0.00542   0.05599   0.05637   0.05705   0.05842
     Eigenvalues ---    0.16000   0.16000   0.16000   0.16000   0.16000
     Eigenvalues ---    0.22242   0.26211   0.30667   0.35244   0.35610
     Eigenvalues ---    0.35610   0.36128   0.36128
 RFO step:  Lambda=-5.37712784D-04 EMin= 5.42392837D-03
 Linear search not attempted -- first point.
 Iteration  1 RMS(Cart)=  0.01489842 RMS(Int)=  0.00005631
 Iteration  2 RMS(Cart)=  0.00005954 RMS(Int)=  0.00001638
 Iteration  3 RMS(Cart)=  0.00000000 RMS(Int)=  0.00001638
 ClnCor:  largest displacement from symmetrization is 4.96D-12 for atom     5.
 Variable       Old X    -DE/DX   Delta X   Delta X   Delta X     New X
                                 (Linear)    (Quad)   (Total)
    R1        2.86653  -0.00790   0.00000  -0.02570  -0.02570   2.84082
    R2        2.05281   0.00141   0.00000   0.00400   0.00400   2.05681
    R3        2.04695   0.00167   0.00000   0.00467   0.00467   2.05162
    R4        2.04695   0.00167   0.00000   0.00467   0.00467   2.05162
    R5        3.39924  -0.00683   0.00000  -0.02602  -0.02602   3.37322
    R6        2.03883   0.00289   0.00000   0.00799   0.00799   2.04682
    R7        2.03883   0.00289   0.00000   0.00799   0.00799   2.04682
    A1        1.90679  -0.00018   0.00000   0.00018   0.00018   1.90697
    A2        1.93815  -0.00106   0.00000  -0.00724  -0.00726   1.93089
    A3        1.93815  -0.00106   0.00000  -0.00724  -0.00726   1.93089
    A4        1.89284   0.00076   0.00000   0.00597   0.00597   1.89881
    A5        1.89284   0.00076   0.00000   0.00597   0.00597   1.89881
    A6        1.89398   0.00086   0.00000   0.00298   0.00293   1.89690
    A7        1.94652  -0.00254   0.00000  -0.01329  -0.01332   1.93320
    A8        1.95082   0.00010   0.00000   0.00115   0.00112   1.95195
    A9        1.95082   0.00010   0.00000   0.00115   0.00112   1.95195
   A10        1.85467   0.00094   0.00000   0.00123   0.00121   1.85587
   A11        1.85467   0.00094   0.00000   0.00123   0.00121   1.85587
   A12        1.90125   0.00058   0.00000   0.00890   0.00888   1.91014
    D1        3.14159   0.00000   0.00000   0.00000   0.00000   3.14159
    D2       -1.06812  -0.00045   0.00000  -0.00661  -0.00661  -1.07474
    D3        1.06812   0.00045   0.00000   0.00661   0.00661   1.07474
    D4       -1.05456   0.00017   0.00000   0.00302   0.00301  -1.05156
    D5        1.01891  -0.00028   0.00000  -0.00360  -0.00361   1.01530
    D6       -3.12803   0.00062   0.00000   0.00963   0.00962  -3.11841
    D7        1.05456  -0.00017   0.00000  -0.00302  -0.00301   1.05156
    D8        3.12803  -0.00062   0.00000  -0.00963  -0.00962   3.11841
    D9       -1.01891   0.00028   0.00000   0.00360   0.00361  -1.01530
         Item               Value     Threshold  Converged?
 Maximum Force            0.007896     0.000450     NO 
 RMS     Force            0.002295     0.000300     NO 
 Maximum Displacement     0.054011     0.001800     NO 
 RMS     Displacement     0.014906     0.001200     NO 
 Predicted change in Energy=-2.693981D-04
 GradGradGradGradGradGradGradGradGradGradGradGradGradGradGradGradGradGrad

                          Input orientation:                          
 ---------------------------------------------------------------------
 Center     Atomic      Atomic             Coordinates (Angstroms)
 Number     Number       Type             X           Y           Z
 ---------------------------------------------------------------------
      1          6           0       -0.000549    0.000000    0.007790
      2          6           0        0.003467    0.000000    1.511084
      3          1           0        1.025979    0.000000   -0.353992
      4          1           0       -0.505752   -0.882125   -0.373409
      5          1           0       -0.505752    0.882125   -0.373409
      6         17           0       -1.663924    0.000000    2.148378
      7          1           0        0.483076   -0.884217    1.912715
      8          1           0        0.483076    0.884217    1.912715
 ---------------------------------------------------------------------
                    Distance matrix (angstroms):
                    1          2          3          4          5
     1  C    0.000000
     2  C    1.503299   0.000000
     3  H    1.088415   2.126979   0.000000
     4  H    1.085673   2.142139   1.767688   0.000000
     5  H    1.085673   2.142139   1.767688   1.764249   0.000000
     6  Cl   2.710891   1.785031   3.673886   2.911858   2.911858
     7  H    2.155104   1.083131   2.492899   2.490813   3.053540
     8  H    2.155104   1.083131   2.492899   3.053540   2.490813
                    6          7          8
     6  Cl   0.000000
     7  H    2.333878   0.000000
     8  H    2.333878   1.768433   0.000000
 Stoichiometry    C2H5Cl
 Framework group  CS[SG(C2HCl),X(H4)]
 Deg. of freedom    11
 Full point group                 CS      NOp   2
 Largest Abelian subgroup         CS      NOp   2
 Largest concise Abelian subgroup CS      NOp   2
                         Standard orientation:                         
 ---------------------------------------------------------------------
 Center     Atomic      Atomic             Coordinates (Angstroms)
 Number     Number       Type             X           Y           Z
 ---------------------------------------------------------------------
      1          6           0        1.493830    0.642477    0.000000
      2          6           0        0.000000    0.810940    0.000000
      3          1           0        1.965750    1.623262    0.000000
      4          1           0        1.817469    0.098602    0.882125
      5          1           0        1.817469    0.098602   -0.882125
      6         17           0       -0.815892   -0.776717    0.000000
      7          1           0       -0.346748    1.331611    0.884217
      8          1           0       -0.346748    1.331611   -0.884217
 ---------------------------------------------------------------------
 Rotational constants (GHZ):     31.8001238      5.5833642      5.0477962
 Standard basis: Aug-CC-pVTZ (5D, 7F)
 There are   182 symmetry adapted cartesian basis functions of A'  symmetry.
 There are   112 symmetry adapted cartesian basis functions of A"  symmetry.
 There are   155 symmetry adapted basis functions of A'  symmetry.
 There are   102 symmetry adapted basis functions of A"  symmetry.
   257 basis functions,   393 primitive gaussians,   294 cartesian basis functions
    17 alpha electrons       17 beta electrons
       nuclear repulsion energy       103.5845343227 Hartrees.
 NAtoms=    8 NActive=    8 NUniq=    6 SFac= 1.78D+00 NAtFMM=   60 NAOKFM=F Big=F
 Integral buffers will be    131072 words long.
 Raffenetti 1 integral format.
 Two-electron integral symmetry is turned on.
 One-electron integrals computed using PRISM.
 NBasis=   257 RedAO= T EigKep=  3.37D-05  NBF=   155   102
 NBsUse=   257 1.00D-06 EigRej= -1.00D+00 NBFU=   155   102
 Initial guess from the checkpoint file:  "/tmp/rdj3/g09-20678/Gau-26801.chk"
 B after Tr=     0.000000    0.000000    0.000000
         Rot=    0.999998    0.000000    0.000000    0.002154 Ang=   0.25 deg.
 Initial guess orbital symmetries:
       Occupied  (A') (A') (A') (A') (A') (A') (A") (A') (A') (A')
                 (A") (A') (A') (A") (A') (A') (A")
       Virtual   (A') (A') (A') (A') (A') (A') (A') (A') (A') (A')
                 (A') (A') (A') (A') (A') (A') (A') (A') (A') (A')
                 (A') (A') (A') (A') (A') (A') (A') (A') (A') (A')
                 (A') (A') (A') (A') (A') (A') (A') (A') (A') (A')
                 (A') (A') (A') (A') (A') (A') (A') (A') (A') (A')
                 (A') (A') (A') (A') (A') (A') (A') (A') (A') (A')
                 (A') (A') (A') (A') (A') (A') (A') (A') (A') (A')
                 (A') (A') (A') (A') (A') (A') (A') (A') (A') (A')
                 (A') (A') (A') (A') (A') (A') (A') (A') (A') (A')
                 (A') (A') (A') (A') (A') (A') (A') (A') (A') (A')
                 (A') (A') (A') (A') (A') (A') (A') (A') (A') (A')
                 (A') (A') (A') (A') (A') (A') (A') (A') (A') (A')
                 (A') (A') (A') (A') (A') (A') (A') (A') (A') (A')
                 (A') (A') (A') (A') (A') (A') (A') (A') (A') (A')
                 (A') (A') (A") (A") (A") (A") (A") (A") (A") (A")
                 (A") (A") (A") (A") (A") (A") (A") (A") (A") (A")
                 (A") (A") (A") (A") (A") (A") (A") (A") (A") (A")
                 (A") (A") (A") (A") (A") (A") (A") (A") (A") (A")
                 (A") (A") (A") (A") (A") (A") (A") (A") (A") (A")
                 (A") (A") (A") (A") (A") (A") (A") (A") (A") (A")
                 (A") (A") (A") (A") (A") (A") (A") (A") (A") (A")
                 (A") (A") (A") (A") (A") (A") (A") (A") (A") (A")
                 (A") (A") (A") (A") (A") (A") (A") (A") (A") (A")
                 (A") (A") (A") (A") (A") (A") (A") (A") (A") (A")
 ExpMin= 2.53D-02 ExpMax= 4.56D+05 ExpMxC= 1.44D+03 IAcc=3 IRadAn=         5 AccDes= 0.00D+00
 Harris functional with IExCor=  205 and IRadAn=       5 diagonalized for initial guess.
 HarFok:  IExCor=  205 AccDes= 0.00D+00 IRadAn=         5 IDoV= 1 UseB2=F ITyADJ=14
 ICtDFT=  3500011 ScaDFX=  1.000000  1.000000  1.000000  1.000000
 FoFCou: FMM=F IPFlag=           0 FMFlag=      100000 FMFlg1=           0
         NFxFlg=           0 DoJE=T BraDBF=F KetDBF=T FulRan=T
         wScrn=  0.000000 ICntrl=     500 IOpCl=  0 I1Cent=   200000004 NGrid=           0
         NMat0=    1 NMatS0=      1 NMatT0=    0 NMatD0=    1 NMtDS0=    0 NMtDT0=    0
 Petite list used in FoFCou.
 Requested convergence on RMS density matrix=1.00D-08 within 128 cycles.
 Requested convergence on MAX density matrix=1.00D-06.
 Requested convergence on             energy=1.00D-06.
 No special actions if energy rises.
 Initial convergence to 1.0D-05 achieved.  Increase integral accuracy.
 SCF Done:  E(RHF) =  -538.200321250     A.U. after    9 cycles
            NFock=  9  Conv=0.73D-08     -V/T= 2.0001
 Range of M.O.s used for correlation:     1   257
 NBasis=   257 NAE=    17 NBE=    17 NFC=     0 NFV=     0
 NROrb=    257 NOA=    17 NOB=    17 NVA=   240 NVB=   240

 **** Warning!!: The largest alpha MO coefficient is  0.42712086D+02

 Fully direct method using O(ONN) memory.
 JobTyp=1 Pass  1:  I=   1 to   4 NPSUse=  8 ParTrn=T ParDer=T DoDerP=T.
 JobTyp=1 Pass  2:  I=   5 to   8 NPSUse=  8 ParTrn=T ParDer=T DoDerP=T.
 JobTyp=1 Pass  3:  I=   9 to  12 NPSUse=  8 ParTrn=T ParDer=T DoDerP=T.
 JobTyp=1 Pass  4:  I=  13 to  16 NPSUse=  8 ParTrn=T ParDer=T DoDerP=T.
 JobTyp=1 Pass  5:  I=  17 to  17 NPSUse=  8 ParTrn=T ParDer=T DoDerP=T.
 Spin components of T(2) and E(2):
     alpha-alpha T2 =       0.2297503073D-01 E2=     -0.7116553296D-01
     alpha-beta  T2 =       0.1399100482D+00 E2=     -0.4894525400D+00
     beta-beta   T2 =       0.2297503073D-01 E2=     -0.7116553296D-01
 ANorm=    0.1088972043D+01
 E2 =    -0.6317836059D+00 EUMP2 =    -0.53883210485593D+03
          IDoAtm=11111111
          Differentiating once with respect to electric field.
                with respect to dipole field.
          Differentiating once with respect to nuclear coordinates.
          There are     1 degrees of freedom in the 1st order CPHF.  IDoFFX=0 NUNeed=     1.
 LinEq1:  Iter=  0 NonCon=     1 RMS=2.09D-03 Max=2.36D-02 NDo=     1
 AX will form     1 AO Fock derivatives at one time.
 LinEq1:  Iter=  1 NonCon=     1 RMS=7.32D-04 Max=1.07D-02 NDo=     1
 LinEq1:  Iter=  2 NonCon=     1 RMS=1.50D-04 Max=1.61D-03 NDo=     1
 LinEq1:  Iter=  3 NonCon=     1 RMS=3.93D-05 Max=4.77D-04 NDo=     1
 LinEq1:  Iter=  4 NonCon=     1 RMS=9.08D-06 Max=7.79D-05 NDo=     1
 LinEq1:  Iter=  5 NonCon=     1 RMS=2.45D-06 Max=5.29D-05 NDo=     1
 LinEq1:  Iter=  6 NonCon=     1 RMS=5.56D-07 Max=1.07D-05 NDo=     1
 LinEq1:  Iter=  7 NonCon=     1 RMS=1.41D-07 Max=2.89D-06 NDo=     1
 LinEq1:  Iter=  8 NonCon=     1 RMS=2.80D-08 Max=2.76D-07 NDo=     1
 LinEq1:  Iter=  9 NonCon=     1 RMS=5.44D-09 Max=5.74D-08 NDo=     1
 LinEq1:  Iter= 10 NonCon=     1 RMS=1.24D-09 Max=1.88D-08 NDo=     1
 LinEq1:  Iter= 11 NonCon=     1 RMS=2.66D-10 Max=3.35D-09 NDo=     1
 LinEq1:  Iter= 12 NonCon=     1 RMS=6.13D-11 Max=1.30D-09 NDo=     1
 LinEq1:  Iter= 13 NonCon=     0 RMS=1.35D-11 Max=1.43D-10 NDo=     1
 Linear equations converged to 1.000D-10 1.000D-09 after    13 iterations.
 End of Minotr F.D. properties file   721 does not exist.
 End of Minotr F.D. properties file   722 does not exist.
 End of Minotr F.D. properties file   788 does not exist.
 Calling FoFJK, ICntrl=  10002127 FMM=F ISym2X=1 I1Cent= 0 IOpClX= 0 NMat=1 NMatS=1 NMatT=0.
 ***** Axes restored to original set *****
 -------------------------------------------------------------------
 Center     Atomic                   Forces (Hartrees/Bohr)
 Number     Number              X              Y              Z
 -------------------------------------------------------------------
      1        6           0.000901666    0.000000000    0.000021689
      2        6          -0.002017791    0.000000000    0.000712302
      3        1          -0.000172585    0.000000000   -0.000560383
      4        1          -0.000057008    0.000066011   -0.000222575
      5        1          -0.000057008   -0.000066011   -0.000222575
      6       17           0.000328221    0.000000000   -0.000017785
      7        1           0.000537253    0.000215330    0.000144663
      8        1           0.000537253   -0.000215330    0.000144663
 -------------------------------------------------------------------
 Cartesian Forces:  Max     0.002017791 RMS     0.000527192

 GradGradGradGradGradGradGradGradGradGradGradGradGradGradGradGradGradGrad
 Berny optimization.
 Using GEDIIS/GDIIS optimizer.
 FormGI is forming the generalized inverse of G from B-inverse, IUseBI=4.
 Internal  Forces:  Max     0.000982198 RMS     0.000320435
 Search for a local minimum.
 Step number   2 out of a maximum of   38
 All quantities printed in internal units (Hartrees-Bohrs-Radians)
 Mixed Optimization -- En-DIIS/RFO-DIIS
 Update second derivatives using D2CorX and points    1    2
 DE= -2.53D-04 DEPred=-2.69D-04 R= 9.37D-01
 TightC=F SS=  1.41D+00  RLast= 4.78D-02 DXNew= 5.0454D-01 1.4353D-01
 Trust test= 9.37D-01 RLast= 4.78D-02 DXMaxT set to 3.00D-01
 ITU=  1  0
 Use linear search instead of GDIIS.
     Eigenvalues ---    0.00542   0.05660   0.05694   0.05864   0.05922
     Eigenvalues ---    0.15794   0.16000   0.16000   0.16000   0.16460
     Eigenvalues ---    0.22477   0.25014   0.33053   0.35181   0.35449
     Eigenvalues ---    0.35610   0.35878   0.36128
 RFO step:  Lambda=-1.62567936D-05 EMin= 5.42392837D-03
 Quartic linear search produced a step of -0.06500.
 Iteration  1 RMS(Cart)=  0.00209880 RMS(Int)=  0.00000432
 Iteration  2 RMS(Cart)=  0.00000400 RMS(Int)=  0.00000223
 Iteration  3 RMS(Cart)=  0.00000000 RMS(Int)=  0.00000223
 ClnCor:  largest displacement from symmetrization is 7.65D-12 for atom     5.
 Variable       Old X    -DE/DX   Delta X   Delta X   Delta X     New X
                                 (Linear)    (Quad)   (Total)
    R1        2.84082   0.00098   0.00167   0.00050   0.00217   2.84299
    R2        2.05681   0.00002  -0.00026   0.00045   0.00019   2.05700
    R3        2.05162   0.00005  -0.00030   0.00059   0.00028   2.05191
    R4        2.05162   0.00005  -0.00030   0.00059   0.00028   2.05191
    R5        3.37322  -0.00031   0.00169  -0.00365  -0.00196   3.37126
    R6        2.04682   0.00012  -0.00052   0.00107   0.00055   2.04737
    R7        2.04682   0.00012  -0.00052   0.00107   0.00055   2.04737
    A1        1.90697   0.00080  -0.00001   0.00531   0.00530   1.91226
    A2        1.93089   0.00011   0.00047  -0.00037   0.00010   1.93099
    A3        1.93089   0.00011   0.00047  -0.00037   0.00010   1.93099
    A4        1.89881  -0.00039  -0.00039  -0.00111  -0.00150   1.89731
    A5        1.89881  -0.00039  -0.00039  -0.00111  -0.00150   1.89731
    A6        1.89690  -0.00026  -0.00019  -0.00243  -0.00262   1.89429
    A7        1.93320   0.00035   0.00087   0.00142   0.00228   1.93549
    A8        1.95195   0.00001  -0.00007  -0.00056  -0.00063   1.95131
    A9        1.95195   0.00001  -0.00007  -0.00056  -0.00063   1.95131
   A10        1.85587   0.00001  -0.00008   0.00227   0.00219   1.85806
   A11        1.85587   0.00001  -0.00008   0.00227   0.00219   1.85806
   A12        1.91014  -0.00040  -0.00058  -0.00461  -0.00519   1.90494
    D1        3.14159   0.00000   0.00000   0.00000   0.00000   3.14159
    D2       -1.07474   0.00026   0.00043   0.00343   0.00385  -1.07088
    D3        1.07474  -0.00026  -0.00043  -0.00343  -0.00385   1.07088
    D4       -1.05156   0.00009  -0.00020   0.00177   0.00158  -1.04998
    D5        1.01530   0.00035   0.00023   0.00519   0.00543   1.02073
    D6       -3.11841  -0.00017  -0.00063  -0.00166  -0.00228  -3.12069
    D7        1.05156  -0.00009   0.00020  -0.00177  -0.00158   1.04998
    D8        3.11841   0.00017   0.00063   0.00166   0.00228   3.12069
    D9       -1.01530  -0.00035  -0.00023  -0.00519  -0.00543  -1.02073
         Item               Value     Threshold  Converged?
 Maximum Force            0.000982     0.000450     NO 
 RMS     Force            0.000320     0.000300     NO 
 Maximum Displacement     0.006304     0.001800     NO 
 RMS     Displacement     0.002098     0.001200     NO 
 Predicted change in Energy=-9.444917D-06
 GradGradGradGradGradGradGradGradGradGradGradGradGradGradGradGradGradGrad

                          Input orientation:                          
 ---------------------------------------------------------------------
 Center     Atomic      Atomic             Coordinates (Angstroms)
 Number     Number       Type             X           Y           Z
 ---------------------------------------------------------------------
      1          6           0        0.000446    0.000000    0.007817
      2          6           0        0.001376    0.000000    1.512264
      3          1           0        1.025890    0.000000   -0.357328
      4          1           0       -0.505411   -0.881417   -0.374575
      5          1           0       -0.505411    0.881417   -0.374575
      6         17           0       -1.664900    0.000000    2.149570
      7          1           0        0.483816   -0.882829    1.914350
      8          1           0        0.483816    0.882829    1.914350
 ---------------------------------------------------------------------
                    Distance matrix (angstroms):
                    1          2          3          4          5
     1  C    0.000000
     2  C    1.504447   0.000000
     3  H    1.088516   2.131901   0.000000
     4  H    1.085823   2.143336   1.766940   0.000000
     5  H    1.085823   2.143336   1.766940   1.762834   0.000000
     6  Cl   2.713021   1.783994   3.677620   2.914209   2.914209
     7  H    2.155898   1.083424   2.496748   2.493541   3.054555
     8  H    2.155898   1.083424   2.496748   3.054555   2.493541
                    6          7          8
     6  Cl   0.000000
     7  H    2.334886   0.000000
     8  H    2.334886   1.765657   0.000000
 Stoichiometry    C2H5Cl
 Framework group  CS[SG(C2HCl),X(H4)]
 Deg. of freedom    11
 Full point group                 CS      NOp   2
 Largest Abelian subgroup         CS      NOp   2
 Largest concise Abelian subgroup CS      NOp   2
                         Standard orientation:                         
 ---------------------------------------------------------------------
 Center     Atomic      Atomic             Coordinates (Angstroms)
 Number     Number       Type             X           Y           Z
 ---------------------------------------------------------------------
      1          6           0        1.495191    0.642899    0.000000
      2          6           0        0.000000    0.809527    0.000000
      3          1           0        1.971060    1.621885    0.000000
      4          1           0        1.819539    0.098001    0.881417
      5          1           0        1.819539    0.098001   -0.881417
      6         17           0       -0.816957   -0.776416    0.000000
      7          1           0       -0.346502    1.333318    0.882829
      8          1           0       -0.346502    1.333318   -0.882829
 ---------------------------------------------------------------------
 Rotational constants (GHZ):     31.8322821      5.5764806      5.0422263
 Standard basis: Aug-CC-pVTZ (5D, 7F)
 There are   182 symmetry adapted cartesian basis functions of A'  symmetry.
 There are   112 symmetry adapted cartesian basis functions of A"  symmetry.
 There are   155 symmetry adapted basis functions of A'  symmetry.
 There are   102 symmetry adapted basis functions of A"  symmetry.
   257 basis functions,   393 primitive gaussians,   294 cartesian basis functions
    17 alpha electrons       17 beta electrons
       nuclear repulsion energy       103.5568873606 Hartrees.
 NAtoms=    8 NActive=    8 NUniq=    6 SFac= 1.78D+00 NAtFMM=   60 NAOKFM=F Big=F
 Integral buffers will be    131072 words long.
 Raffenetti 1 integral format.
 Two-electron integral symmetry is turned on.
 One-electron integrals computed using PRISM.
 NBasis=   257 RedAO= T EigKep=  3.40D-05  NBF=   155   102
 NBsUse=   257 1.00D-06 EigRej= -1.00D+00 NBFU=   155   102
 Initial guess from the checkpoint file:  "/tmp/rdj3/g09-20678/Gau-26801.chk"
 B after Tr=     0.000000    0.000000    0.000000
         Rot=    1.000000    0.000000    0.000000    0.000304 Ang=   0.03 deg.
 Initial guess orbital symmetries:
       Occupied  (A') (A') (A') (A') (A') (A') (A") (A') (A') (A')
                 (A") (A') (A') (A") (A') (A') (A")
       Virtual   (A') (A') (A') (A') (A') (A') (A') (A') (A') (A')
                 (A') (A') (A') (A') (A') (A') (A') (A') (A') (A')
                 (A') (A') (A') (A') (A') (A') (A') (A') (A') (A')
                 (A') (A') (A') (A') (A') (A') (A') (A') (A') (A')
                 (A') (A') (A') (A') (A') (A') (A') (A') (A') (A')
                 (A') (A') (A') (A') (A') (A') (A') (A') (A') (A')
                 (A') (A') (A') (A') (A') (A') (A') (A') (A') (A')
                 (A') (A') (A') (A') (A') (A') (A') (A') (A') (A')
                 (A') (A') (A') (A') (A') (A') (A') (A') (A') (A')
                 (A') (A') (A') (A') (A') (A') (A') (A') (A') (A')
                 (A') (A') (A') (A') (A') (A') (A') (A') (A') (A')
                 (A') (A') (A') (A') (A') (A') (A') (A') (A') (A')
                 (A') (A') (A') (A') (A') (A') (A') (A') (A') (A')
                 (A') (A') (A') (A') (A') (A') (A') (A') (A') (A')
                 (A') (A') (A") (A") (A") (A") (A") (A") (A") (A")
                 (A") (A") (A") (A") (A") (A") (A") (A") (A") (A")
                 (A") (A") (A") (A") (A") (A") (A") (A") (A") (A")
                 (A") (A") (A") (A") (A") (A") (A") (A") (A") (A")
                 (A") (A") (A") (A") (A") (A") (A") (A") (A") (A")
                 (A") (A") (A") (A") (A") (A") (A") (A") (A") (A")
                 (A") (A") (A") (A") (A") (A") (A") (A") (A") (A")
                 (A") (A") (A") (A") (A") (A") (A") (A") (A") (A")
                 (A") (A") (A") (A") (A") (A") (A") (A") (A") (A")
                 (A") (A") (A") (A") (A") (A") (A") (A") (A") (A")
 Requested convergence on RMS density matrix=1.00D-08 within 128 cycles.
 Requested convergence on MAX density matrix=1.00D-06.
 Requested convergence on             energy=1.00D-06.
 No special actions if energy rises.
 SCF Done:  E(RHF) =  -538.200337553     A.U. after    8 cycles
            NFock=  8  Conv=0.27D-08     -V/T= 2.0001
 Range of M.O.s used for correlation:     1   257
 NBasis=   257 NAE=    17 NBE=    17 NFC=     0 NFV=     0
 NROrb=    257 NOA=    17 NOB=    17 NVA=   240 NVB=   240

 **** Warning!!: The largest alpha MO coefficient is  0.42589753D+02

 Fully direct method using O(ONN) memory.
 JobTyp=1 Pass  1:  I=   1 to   4 NPSUse=  8 ParTrn=T ParDer=T DoDerP=T.
 JobTyp=1 Pass  2:  I=   5 to   8 NPSUse=  8 ParTrn=T ParDer=T DoDerP=T.
 JobTyp=1 Pass  3:  I=   9 to  12 NPSUse=  8 ParTrn=T ParDer=T DoDerP=T.
 JobTyp=1 Pass  4:  I=  13 to  16 NPSUse=  8 ParTrn=T ParDer=T DoDerP=T.
 JobTyp=1 Pass  5:  I=  17 to  17 NPSUse=  8 ParTrn=T ParDer=T DoDerP=T.
 Spin components of T(2) and E(2):
     alpha-alpha T2 =       0.2297534623D-01 E2=     -0.7116198125D-01
     alpha-beta  T2 =       0.1399267489D+00 E2=     -0.4894547502D+00
     beta-beta   T2 =       0.2297534623D-01 E2=     -0.7116198125D-01
 ANorm=    0.1088980000D+01
 E2 =    -0.6317787127D+00 EUMP2 =    -0.53883211626601D+03
          IDoAtm=11111111
          Differentiating once with respect to electric field.
                with respect to dipole field.
          Differentiating once with respect to nuclear coordinates.
          There are     1 degrees of freedom in the 1st order CPHF.  IDoFFX=0 NUNeed=     1.
 LinEq1:  Iter=  0 NonCon=     1 RMS=2.09D-03 Max=2.34D-02 NDo=     1
 AX will form     1 AO Fock derivatives at one time.
 LinEq1:  Iter=  1 NonCon=     1 RMS=7.32D-04 Max=1.07D-02 NDo=     1
 LinEq1:  Iter=  2 NonCon=     1 RMS=1.50D-04 Max=1.62D-03 NDo=     1
 LinEq1:  Iter=  3 NonCon=     1 RMS=3.93D-05 Max=4.81D-04 NDo=     1
 LinEq1:  Iter=  4 NonCon=     1 RMS=9.11D-06 Max=7.83D-05 NDo=     1
 LinEq1:  Iter=  5 NonCon=     1 RMS=2.47D-06 Max=5.30D-05 NDo=     1
 LinEq1:  Iter=  6 NonCon=     1 RMS=5.61D-07 Max=1.05D-05 NDo=     1
 LinEq1:  Iter=  7 NonCon=     1 RMS=1.41D-07 Max=2.85D-06 NDo=     1
 LinEq1:  Iter=  8 NonCon=     1 RMS=2.80D-08 Max=2.77D-07 NDo=     1
 LinEq1:  Iter=  9 NonCon=     1 RMS=5.48D-09 Max=5.69D-08 NDo=     1
 LinEq1:  Iter= 10 NonCon=     1 RMS=1.25D-09 Max=1.94D-08 NDo=     1
 LinEq1:  Iter= 11 NonCon=     1 RMS=2.68D-10 Max=3.33D-09 NDo=     1
 LinEq1:  Iter= 12 NonCon=     1 RMS=6.19D-11 Max=1.26D-09 NDo=     1
 LinEq1:  Iter= 13 NonCon=     0 RMS=1.33D-11 Max=1.43D-10 NDo=     1
 Linear equations converged to 1.000D-10 1.000D-09 after    13 iterations.
 End of Minotr F.D. properties file   721 does not exist.
 End of Minotr F.D. properties file   722 does not exist.
 End of Minotr F.D. properties file   788 does not exist.
 Calling FoFJK, ICntrl=  10002127 FMM=F ISym2X=1 I1Cent= 0 IOpClX= 0 NMat=1 NMatS=1 NMatT=0.
 ***** Axes restored to original set *****
 -------------------------------------------------------------------
 Center     Atomic                   Forces (Hartrees/Bohr)
 Number     Number              X              Y              Z
 -------------------------------------------------------------------
      1        6           0.000221424    0.000000000    0.000013149
      2        6          -0.000637599    0.000000000    0.000260728
      3        1          -0.000134331    0.000000000   -0.000011966
      4        1          -0.000021770    0.000019147   -0.000072229
      5        1          -0.000021770   -0.000019147   -0.000072229
      6       17           0.000301054    0.000000000   -0.000142212
      7        1           0.000146496    0.000090463    0.000012379
      8        1           0.000146496   -0.000090463    0.000012379
 -------------------------------------------------------------------
 Cartesian Forces:  Max     0.000637599 RMS     0.000173742

 GradGradGradGradGradGradGradGradGradGradGradGradGradGradGradGradGradGrad
 Berny optimization.
 Using GEDIIS/GDIIS optimizer.
 FormGI is forming the generalized inverse of G from B-inverse, IUseBI=4.
 Internal  Forces:  Max     0.000331991 RMS     0.000088432
 Search for a local minimum.
 Step number   3 out of a maximum of   38
 All quantities printed in internal units (Hartrees-Bohrs-Radians)
 Mixed Optimization -- En-DIIS/RFO-DIIS
 Swapping is turned off.
 Update second derivatives using D2CorX and points    1    2    3
 DE= -1.14D-05 DEPred=-9.44D-06 R= 1.21D+00
 TightC=F SS=  1.41D+00  RLast= 1.40D-02 DXNew= 5.0454D-01 4.1930D-02
 Trust test= 1.21D+00 RLast= 1.40D-02 DXMaxT set to 3.00D-01
 ITU=  1  1  0
     Eigenvalues ---    0.00542   0.04740   0.05671   0.05728   0.05827
     Eigenvalues ---    0.15382   0.16000   0.16000   0.16001   0.16179
     Eigenvalues ---    0.22682   0.24398   0.32850   0.35431   0.35550
     Eigenvalues ---    0.35610   0.36070   0.36128
 En-DIIS/RFO-DIIS IScMMF=        0 using points:     3    2
 RFO step:  Lambda=-6.24972170D-07.
 DidBck=F Rises=F RFO-DIIS coefs:    1.27414   -0.27414
 Iteration  1 RMS(Cart)=  0.00065766 RMS(Int)=  0.00000114
 Iteration  2 RMS(Cart)=  0.00000056 RMS(Int)=  0.00000100
 ClnCor:  largest displacement from symmetrization is 1.59D-11 for atom     5.
 Variable       Old X    -DE/DX   Delta X   Delta X   Delta X     New X
                                 (Linear)    (Quad)   (Total)
    R1        2.84299   0.00014   0.00059  -0.00018   0.00042   2.84341
    R2        2.05700  -0.00012   0.00005  -0.00045  -0.00039   2.05660
    R3        2.05191   0.00002   0.00008   0.00006   0.00014   2.05205
    R4        2.05191   0.00002   0.00008   0.00006   0.00014   2.05205
    R5        3.37126  -0.00033  -0.00054  -0.00150  -0.00204   3.36922
    R6        2.04737   0.00000   0.00015  -0.00005   0.00011   2.04748
    R7        2.04737   0.00000   0.00015  -0.00005   0.00011   2.04748
    A1        1.91226   0.00006   0.00145  -0.00062   0.00083   1.91310
    A2        1.93099   0.00007   0.00003   0.00039   0.00042   1.93141
    A3        1.93099   0.00007   0.00003   0.00039   0.00042   1.93141
    A4        1.89731  -0.00006  -0.00041   0.00005  -0.00036   1.89695
    A5        1.89731  -0.00006  -0.00041   0.00005  -0.00036   1.89695
    A6        1.89429  -0.00009  -0.00072  -0.00027  -0.00099   1.89329
    A7        1.93549  -0.00002   0.00063  -0.00032   0.00031   1.93579
    A8        1.95131   0.00000  -0.00017  -0.00013  -0.00030   1.95101
    A9        1.95131   0.00000  -0.00017  -0.00013  -0.00030   1.95101
   A10        1.85806   0.00006   0.00060   0.00069   0.00129   1.85935
   A11        1.85806   0.00006   0.00060   0.00069   0.00129   1.85935
   A12        1.90494  -0.00010  -0.00142  -0.00074  -0.00217   1.90277
    D1        3.14159   0.00000   0.00000   0.00000   0.00000   3.14159
    D2       -1.07088   0.00007   0.00106   0.00058   0.00163  -1.06925
    D3        1.07088  -0.00007  -0.00106  -0.00058  -0.00163   1.06925
    D4       -1.04998   0.00001   0.00043  -0.00009   0.00034  -1.04964
    D5        1.02073   0.00008   0.00149   0.00049   0.00198   1.02271
    D6       -3.12069  -0.00006  -0.00062  -0.00067  -0.00129  -3.12198
    D7        1.04998  -0.00001  -0.00043   0.00009  -0.00034   1.04964
    D8        3.12069   0.00006   0.00062   0.00067   0.00129   3.12198
    D9       -1.02073  -0.00008  -0.00149  -0.00049  -0.00198  -1.02271
         Item               Value     Threshold  Converged?
 Maximum Force            0.000332     0.000450     YES
 RMS     Force            0.000088     0.000300     YES
 Maximum Displacement     0.001453     0.001800     YES
 RMS     Displacement     0.000658     0.001200     YES
 Predicted change in Energy=-1.033811D-06
 Optimization completed.
    -- Stationary point found.
                           ----------------------------
                           !   Optimized Parameters   !
                           ! (Angstroms and Degrees)  !
 --------------------------                            --------------------------
 ! Name  Definition              Value          Derivative Info.                !
 --------------------------------------------------------------------------------
 ! R1    R(1,2)                  1.5044         -DE/DX =    0.0001              !
 ! R2    R(1,3)                  1.0885         -DE/DX =   -0.0001              !
 ! R3    R(1,4)                  1.0858         -DE/DX =    0.0                 !
 ! R4    R(1,5)                  1.0858         -DE/DX =    0.0                 !
 ! R5    R(2,6)                  1.784          -DE/DX =   -0.0003              !
 ! R6    R(2,7)                  1.0834         -DE/DX =    0.0                 !
 ! R7    R(2,8)                  1.0834         -DE/DX =    0.0                 !
 ! A1    A(2,1,3)              109.5647         -DE/DX =    0.0001              !
 ! A2    A(2,1,4)              110.6376         -DE/DX =    0.0001              !
 ! A3    A(2,1,5)              110.6376         -DE/DX =    0.0001              !
 ! A4    A(3,1,4)              108.708          -DE/DX =   -0.0001              !
 ! A5    A(3,1,5)              108.708          -DE/DX =   -0.0001              !
 ! A6    A(4,1,5)              108.5346         -DE/DX =   -0.0001              !
 ! A7    A(1,2,6)              110.8951         -DE/DX =    0.0                 !
 ! A8    A(1,2,7)              111.802          -DE/DX =    0.0                 !
 ! A9    A(1,2,8)              111.802          -DE/DX =    0.0                 !
 ! A10   A(6,2,7)              106.459          -DE/DX =    0.0001              !
 ! A11   A(6,2,8)              106.459          -DE/DX =    0.0001              !
 ! A12   A(7,2,8)              109.1452         -DE/DX =   -0.0001              !
 ! D1    D(3,1,2,6)            180.0            -DE/DX =    0.0                 !
 ! D2    D(3,1,2,7)            -61.3571         -DE/DX =    0.0001              !
 ! D3    D(3,1,2,8)             61.3571         -DE/DX =   -0.0001              !
 ! D4    D(4,1,2,6)            -60.1594         -DE/DX =    0.0                 !
 ! D5    D(4,1,2,7)             58.4834         -DE/DX =    0.0001              !
 ! D6    D(4,1,2,8)           -178.8023         -DE/DX =   -0.0001              !
 ! D7    D(5,1,2,6)             60.1594         -DE/DX =    0.0                 !
 ! D8    D(5,1,2,7)            178.8023         -DE/DX =    0.0001              !
 ! D9    D(5,1,2,8)            -58.4834         -DE/DX =   -0.0001              !
 --------------------------------------------------------------------------------
 GradGradGradGradGradGradGradGradGradGradGradGradGradGradGradGradGradGrad

                          Input orientation:                          
 ---------------------------------------------------------------------
 Center     Atomic      Atomic             Coordinates (Angstroms)
 Number     Number       Type             X           Y           Z
 ---------------------------------------------------------------------
      1          6           0        0.000446    0.000000    0.007817
      2          6           0        0.001376    0.000000    1.512264
      3          1           0        1.025890    0.000000   -0.357328
      4          1           0       -0.505411   -0.881417   -0.374575
      5          1           0       -0.505411    0.881417   -0.374575
      6         17           0       -1.664900    0.000000    2.149570
      7          1           0        0.483816   -0.882829    1.914350
      8          1           0        0.483816    0.882829    1.914350
 ---------------------------------------------------------------------
                    Distance matrix (angstroms):
                    1          2          3          4          5
     1  C    0.000000
     2  C    1.504447   0.000000
     3  H    1.088516   2.131901   0.000000
     4  H    1.085823   2.143336   1.766940   0.000000
     5  H    1.085823   2.143336   1.766940   1.762834   0.000000
     6  Cl   2.713021   1.783994   3.677620   2.914209   2.914209
     7  H    2.155898   1.083424   2.496748   2.493541   3.054555
     8  H    2.155898   1.083424   2.496748   3.054555   2.493541
                    6          7          8
     6  Cl   0.000000
     7  H    2.334886   0.000000
     8  H    2.334886   1.765657   0.000000
 Stoichiometry    C2H5Cl
 Framework group  CS[SG(C2HCl),X(H4)]
 Deg. of freedom    11
 Full point group                 CS      NOp   2
 Largest Abelian subgroup         CS      NOp   2
 Largest concise Abelian subgroup CS      NOp   2
                         Standard orientation:                         
 ---------------------------------------------------------------------
 Center     Atomic      Atomic             Coordinates (Angstroms)
 Number     Number       Type             X           Y           Z
 ---------------------------------------------------------------------
      1          6           0        1.495191    0.642899    0.000000
      2          6           0        0.000000    0.809527    0.000000
      3          1           0        1.971060    1.621885    0.000000
      4          1           0        1.819539    0.098001    0.881417
      5          1           0        1.819539    0.098001   -0.881417
      6         17           0       -0.816957   -0.776416    0.000000
      7          1           0       -0.346502    1.333318    0.882829
      8          1           0       -0.346502    1.333318   -0.882829
 ---------------------------------------------------------------------
 Rotational constants (GHZ):     31.8322821      5.5764806      5.0422263

 **********************************************************************

            Population analysis using the MP2 density.

 **********************************************************************

 Orbital symmetries:
       Occupied  (A') (A') (A') (A') (A') (A') (A") (A') (A') (A')
                 (A") (A') (A') (A") (A') (A') (A")
       Virtual   (A') (A') (A") (A') (A") (A') (A') (A') (A") (A')
                 (A') (A") (A') (A') (A") (A') (A') (A") (A') (A")
                 (A') (A") (A') (A') (A') (A') (A") (A') (A") (A')
                 (A") (A') (A") (A') (A") (A') (A') (A") (A') (A")
                 (A') (A') (A") (A') (A') (A") (A') (A") (A') (A")
                 (A') (A') (A") (A') (A') (A') (A') (A") (A') (A")
                 (A') (A") (A') (A") (A') (A") (A') (A") (A') (A")
                 (A") (A') (A') (A') (A') (A") (A') (A") (A') (A")
                 (A') (A") (A') (A') (A") (A') (A") (A") (A") (A')
                 (A') (A') (A') (A") (A') (A") (A') (A") (A') (A")
                 (A") (A') (A') (A") (A') (A') (A") (A') (A') (A")
                 (A') (A") (A') (A') (A") (A') (A") (A') (A") (A')
                 (A') (A") (A') (A') (A') (A") (A') (A") (A') (A")
                 (A') (A") (A') (A") (A") (A') (A') (A") (A') (A')
                 (A") (A') (A") (A') (A") (A') (A") (A') (A') (A")
                 (A') (A') (A") (A') (A') (A') (A') (A") (A') (A')
                 (A") (A") (A') (A') (A") (A') (A") (A') (A') (A")
                 (A") (A') (A") (A') (A") (A') (A') (A") (A") (A')
                 (A') (A") (A") (A') (A') (A") (A") (A') (A") (A')
                 (A") (A") (A') (A') (A") (A') (A') (A") (A') (A')
                 (A") (A') (A') (A') (A") (A') (A") (A') (A') (A')
                 (A") (A') (A") (A") (A') (A') (A") (A') (A") (A')
                 (A") (A') (A") (A') (A") (A') (A") (A') (A') (A")
                 (A') (A') (A") (A') (A") (A') (A") (A') (A') (A')
 The electronic state is 1-A'.
 Alpha  occ. eigenvalues -- -104.81981 -11.29108 -11.23058 -10.54452  -8.01136
 Alpha  occ. eigenvalues --   -8.00959  -8.00957  -1.13928  -1.00220  -0.84367
 Alpha  occ. eigenvalues --   -0.65322  -0.61388  -0.56228  -0.52990  -0.50745
 Alpha  occ. eigenvalues --   -0.43116  -0.43058
 Alpha virt. eigenvalues --    0.02879   0.04065   0.04134   0.04917   0.06438
 Alpha virt. eigenvalues --    0.08257   0.10004   0.11056   0.12024   0.12519
 Alpha virt. eigenvalues --    0.13518   0.14599   0.14927   0.16222   0.16334
 Alpha virt. eigenvalues --    0.17677   0.21002   0.21894   0.22740   0.24249
 Alpha virt. eigenvalues --    0.27358   0.27850   0.28334   0.30185   0.30863
 Alpha virt. eigenvalues --    0.32042   0.33402   0.34006   0.35666   0.36293
 Alpha virt. eigenvalues --    0.36783   0.37347   0.39107   0.40103   0.40862
 Alpha virt. eigenvalues --    0.41016   0.43398   0.43464   0.43566   0.43942
 Alpha virt. eigenvalues --    0.45822   0.46791   0.47646   0.48026   0.48830
 Alpha virt. eigenvalues --    0.49773   0.51045   0.51233   0.53848   0.54235
 Alpha virt. eigenvalues --    0.56594   0.58639   0.59034   0.62042   0.70566
 Alpha virt. eigenvalues --    0.72293   0.76505   0.77685   0.79422   0.79687
 Alpha virt. eigenvalues --    0.81628   0.81831   0.83037   0.85422   0.86425
 Alpha virt. eigenvalues --    0.86469   0.88424   0.88797   0.89969   0.92000
 Alpha virt. eigenvalues --    0.93426   0.93770   0.94338   0.95442   0.95941
 Alpha virt. eigenvalues --    0.97075   0.98714   1.02653   1.03184   1.05558
 Alpha virt. eigenvalues --    1.06208   1.07557   1.07724   1.08636   1.08659
 Alpha virt. eigenvalues --    1.09565   1.12212   1.13957   1.14637   1.15803
 Alpha virt. eigenvalues --    1.16404   1.19278   1.20903   1.22685   1.25349
 Alpha virt. eigenvalues --    1.25772   1.27661   1.30009   1.34097   1.36941
 Alpha virt. eigenvalues --    1.37194   1.39782   1.41362   1.42359   1.43380
 Alpha virt. eigenvalues --    1.45439   1.52438   1.52792   1.58449   1.60257
 Alpha virt. eigenvalues --    1.60613   1.65034   1.65835   1.66471   1.66529
 Alpha virt. eigenvalues --    1.67820   1.68219   1.70025   1.74538   1.75427
 Alpha virt. eigenvalues --    1.78642   1.79375   1.80651   1.83819   1.84433
 Alpha virt. eigenvalues --    1.87632   1.89502   1.92361   1.94920   1.96844
 Alpha virt. eigenvalues --    1.96900   2.01961   2.03008   2.05175   2.09642
 Alpha virt. eigenvalues --    2.12307   2.19148   2.21770   2.23185   2.24494
 Alpha virt. eigenvalues --    2.25205   2.28836   2.35854   2.36586   2.38730
 Alpha virt. eigenvalues --    2.58797   2.67105   2.68745   2.73956   2.75778
 Alpha virt. eigenvalues --    2.76743   2.88400   2.99901   3.05009   3.08086
 Alpha virt. eigenvalues --    3.11934   3.15762   3.15780   3.19730   3.21785
 Alpha virt. eigenvalues --    3.25266   3.26574   3.28686   3.31032   3.39702
 Alpha virt. eigenvalues --    3.41047   3.44029   3.44799   3.54059   3.58016
 Alpha virt. eigenvalues --    3.58813   3.60471   3.62730   3.63341   3.69340
 Alpha virt. eigenvalues --    3.71713   3.72218   3.73981   3.80842   3.82159
 Alpha virt. eigenvalues --    3.87413   3.89983   3.94381   3.96001   3.97214
 Alpha virt. eigenvalues --    3.97228   4.04069   4.10343   4.12548   4.14901
 Alpha virt. eigenvalues --    4.17566   4.18182   4.22518   4.23706   4.31711
 Alpha virt. eigenvalues --    4.37353   4.40824   4.43161   4.53004   4.58108
 Alpha virt. eigenvalues --    4.63397   4.64401   4.73431   4.78315   4.79402
 Alpha virt. eigenvalues --    4.81286   4.83301   4.88159   4.92452   4.97755
 Alpha virt. eigenvalues --    4.97816   5.02851   5.06936   5.11913   5.13772
 Alpha virt. eigenvalues --    5.14687   5.26607   5.31126   5.32554   5.37026
 Alpha virt. eigenvalues --    5.42054   5.48166   5.53668   5.54950   5.70919
 Alpha virt. eigenvalues --    5.75526   5.80538   5.92800   5.99064   6.02821
 Alpha virt. eigenvalues --    6.10955   6.17557   6.22000   6.28549   6.65345
 Alpha virt. eigenvalues --    6.71994   6.78075   7.85006  16.92894  18.02011
          Condensed to atoms (all electrons):
               1          2          3          4          5          6
     1  C    7.084560  -0.583081   0.127643   0.136579   0.136579   0.022886
     2  C   -0.583081   7.092346   0.021799  -0.018567  -0.018567  -0.173277
     3  H    0.127643   0.021799   0.598532  -0.026636  -0.026636   0.008666
     4  H    0.136579  -0.018567  -0.026636   0.574115   0.007486  -0.010028
     5  H    0.136579  -0.018567  -0.026636   0.007486   0.574115  -0.010028
     6  Cl   0.022886  -0.173277   0.008666  -0.010028  -0.010028  17.457305
     7  H    0.001724   0.030083  -0.007449  -0.004094   0.009985  -0.020408
     8  H    0.001724   0.030083  -0.007449   0.009985  -0.004094  -0.020408
               7          8
     1  C    0.001724   0.001724
     2  C    0.030083   0.030083
     3  H   -0.007449  -0.007449
     4  H   -0.004094   0.009985
     5  H    0.009985  -0.004094
     6  Cl  -0.020408  -0.020408
     7  H    0.719174  -0.024160
     8  H   -0.024160   0.719174
 Mulliken charges:
               1
     1  C   -0.928614
     2  C   -0.380819
     3  H    0.311529
     4  H    0.331160
     5  H    0.331160
     6  Cl  -0.254707
     7  H    0.295145
     8  H    0.295145
 Sum of Mulliken charges =   0.00000
 Mulliken charges with hydrogens summed into heavy atoms:
               1
     1  C    0.045235
     2  C    0.209471
     6  Cl  -0.254707
 Electronic spatial extent (au):  <R**2>=            279.0012
 Charge=              0.0000 electrons
 Dipole moment (field-independent basis, Debye):
    X=              1.1096    Y=              1.7514    Z=              0.0000  Tot=              2.0733
 Quadrupole moment (field-independent basis, Debye-Ang):
   XX=            -27.3619   YY=            -26.0363   ZZ=            -26.5478
   XY=             -0.2569   XZ=              0.0000   YZ=              0.0000
 Traceless Quadrupole moment (field-independent basis, Debye-Ang):
   XX=             -0.7132   YY=              0.6124   ZZ=              0.1008
   XY=             -0.2569   XZ=              0.0000   YZ=              0.0000
 Octapole moment (field-independent basis, Debye-Ang**2):
  XXX=             -1.2453  YYY=             -1.4710  ZZZ=              0.0000  XYY=             -1.6682
  XXY=             -0.5301  XXZ=              0.0000  XZZ=             -0.3676  YZZ=              0.4692
  YYZ=              0.0000  XYZ=              0.0000
 Hexadecapole moment (field-independent basis, Debye-Ang**3):
 XXXX=           -206.9485 YYYY=           -132.3775 ZZZZ=            -43.3308 XXXY=            -44.7677
 XXXZ=              0.0000 YYYX=            -40.8595 YYYZ=              0.0000 ZZZX=              0.0000
 ZZZY=              0.0000 XXYY=            -53.2844 XXZZ=            -40.6351 YYZZ=            -29.9515
 XXYZ=              0.0000 YYXZ=              0.0000 ZZXY=            -17.2837
 N-N= 1.035568873606D+02 E-N=-1.484114721217D+03  KE= 5.383428825145D+02
 Symmetry A'   KE= 4.885078155569D+02
 Symmetry A"   KE= 4.983506695765D+01
 B after Tr=    -0.021475    0.000000    0.015910
         Rot=    0.999997    0.000000   -0.002503    0.000000 Ang=  -0.29 deg.
 Final structure in terms of initial Z-matrix:
 C
 C,1,rcc
 H,1,rh1,2,ah1
 H,1,rh2,2,ah2,3,d2,0
 H,1,rh2,2,ah2,3,-d2,0
 Cl,2,rcl,1,acl,3,180.,0
 H,2,rh3,1,ah3,6,d3,0
 H,2,rh3,1,ah3,6,-d3,0
      Variables:
 rcc=1.50444668
 rh1=1.08851552
 rh2=1.08582295
 rcl=1.78399401
 rh3=1.08342402
 ah1=109.56465925
 ah2=110.63758782
 acl=110.89512398
 ah3=111.80200602
 d2=119.84055997
 d3=118.64288153
 1\1\GINC-N354\FOpt\RMP2-Full\Aug-CC-pVTZ\C2H5Cl1\RDJ3\07-Feb-2014\0\\#
 MP2=FULL/aug-cc-pVTZ density opt freq\\c2h5cl Ethyl chloride casno=750
 03 state=1 config=1 method=2 basis=18\\0,1\C,0.0075796308,0.,0.0118197
 382\C,0.0085091451,0.,1.5162661322\H,1.0330234079,0.,-0.3533255588\H,-
 0.4982779574,-0.8814170142,-0.3705722336\H,-0.4982779574,0.8814170142,
 -0.3705722336\Cl,-1.6577667563,0.,2.1535723713\H,0.4909489166,-0.88282
 8571,1.9183521906\H,0.4909489166,0.882828571,1.9183521906\\Version=EM6
 4L-G09RevD.01\State=1-A'\HF=-538.2003376\MP2=-538.8321163\RMSD=2.716e-
 09\RMSF=1.737e-04\Dipole=0.4365375,0.6890359,0.\Quadrupole=-0.5302505,
 0.4552921,0.0749584,-0.1910225,0.,0.\PG=CS [SG(C2H1Cl1),X(H4)]\\@


 GOD GAVE US TWO ENDS... ONE TO SIT ON...    
 AND THE OTHER TO THINK WITH...              
 YOUR SUCCESS DEPENDS UPON WHICH END YOU     
 USE THE MOST...                             
                                             
 IT'S A CASE OF HEADS YOU WIN TAILS YOU LOSE.
          SOURCE UNKNOWN(IT'S JUST AS WELL.) 
 Job cpu time:       0 days  2 hours 37 minutes  9.3 seconds.
 File lengths (MBytes):  RWF=     43 Int=      0 D2E=      0 Chk=      7 Scr=      1
 Normal termination of Gaussian 09 at Fri Feb  7 05:20:54 2014.
 Link1:  Proceeding to internal job step number  2.
 ----------------------------------------------------------------------
 #N Geom=AllCheck Guess=TCheck SCRF=Check GenChk RMP2-Full/Aug-CC-pVTZ 
 Freq
 ----------------------------------------------------------------------
 1/10=4,29=7,30=1,38=1,40=1/1,3;
 2/12=2,40=1/2;
 3/5=16,6=1,7=10,11=1,14=-4,16=1,25=1,30=1,70=2,71=2,116=1,140=1/1,2,3;
 4/5=101/1;
 5/5=2,98=1/2;
 8/6=3,8=1,10=90,19=11/1;
 9/15=3,16=-3/6;
 11/6=1,8=1,15=11,17=11,24=-1,27=1,28=-2,29=300,32=6,42=3/1,2,10;
 10/6=2,21=1/2;
 8/6=4,8=1,10=90,19=11/11,4;
 10/5=1,20=4/2;
 11/12=2,14=11,16=1,28=-2,42=3/2,10,12;
 6/7=2,8=2,9=2,10=2,22=-1/1;
 7/8=1,10=1,12=2,25=1,44=2/1,2,3,16;
 1/10=4,30=1/3;
 99//99;
 Structure from the checkpoint file:  "/tmp/rdj3/g09-20678/Gau-26801.chk"
 --------------------------------------------------------------------
 c2h5cl Ethyl chloride casno=75003 state=1 config=1 method=2 basis=18
 --------------------------------------------------------------------
 Charge =  0 Multiplicity = 1
 Redundant internal coordinates found in file.
 C,0,0.000446487,0.,0.0078171579
 C,0,0.0013760014,0.,1.5122635519
 H,0,1.0258902642,0.,-0.3573281391
 H,0,-0.5054111012,-0.8814170142,-0.3745748139
 H,0,-0.5054111012,0.8814170142,-0.3745748139
 Cl,0,-1.6648999,0.,2.149569791
 H,0,0.4838157728,-0.882828571,1.9143496103
 H,0,0.4838157728,0.882828571,1.9143496103
 Recover connectivity data from disk.

 GradGradGradGradGradGradGradGradGradGradGradGradGradGradGradGradGradGrad
 Berny optimization.
 Initialization pass.
                           ----------------------------
                           !    Initial Parameters    !
                           ! (Angstroms and Degrees)  !
 --------------------------                            --------------------------
 ! Name  Definition              Value          Derivative Info.                !
 --------------------------------------------------------------------------------
 ! R1    R(1,2)                  1.5044         calculate D2E/DX2 analytically  !
 ! R2    R(1,3)                  1.0885         calculate D2E/DX2 analytically  !
 ! R3    R(1,4)                  1.0858         calculate D2E/DX2 analytically  !
 ! R4    R(1,5)                  1.0858         calculate D2E/DX2 analytically  !
 ! R5    R(2,6)                  1.784          calculate D2E/DX2 analytically  !
 ! R6    R(2,7)                  1.0834         calculate D2E/DX2 analytically  !
 ! R7    R(2,8)                  1.0834         calculate D2E/DX2 analytically  !
 ! A1    A(2,1,3)              109.5647         calculate D2E/DX2 analytically  !
 ! A2    A(2,1,4)              110.6376         calculate D2E/DX2 analytically  !
 ! A3    A(2,1,5)              110.6376         calculate D2E/DX2 analytically  !
 ! A4    A(3,1,4)              108.708          calculate D2E/DX2 analytically  !
 ! A5    A(3,1,5)              108.708          calculate D2E/DX2 analytically  !
 ! A6    A(4,1,5)              108.5346         calculate D2E/DX2 analytically  !
 ! A7    A(1,2,6)              110.8951         calculate D2E/DX2 analytically  !
 ! A8    A(1,2,7)              111.802          calculate D2E/DX2 analytically  !
 ! A9    A(1,2,8)              111.802          calculate D2E/DX2 analytically  !
[...]
     6  17    -0.01   0.00   0.00     0.00   0.00  -0.01     0.00   0.01   0.00
     7   1     0.10  -0.20   0.00     0.57   0.20   0.04    -0.53  -0.41   0.03
     8   1     0.10  -0.20   0.00    -0.57  -0.20   0.04    -0.53  -0.41  -0.03
                     10                     11                     12
                     A'                     A"                     A'
 Frequencies --   1427.0386              1514.6613              1521.5212
 Red. masses --      1.2655                 1.0364                 1.0882
 Frc consts  --      1.5184                 1.4009                 1.4843
 IR Inten    --      6.5966                 8.9638                 1.5005
  Atom  AN      X      Y      Z        X      Y      Z        X      Y      Z
     1   6     0.15  -0.01   0.00     0.00   0.00  -0.05     0.01  -0.01   0.00
     2   6    -0.02  -0.01   0.00     0.00   0.00  -0.02    -0.07   0.05   0.00
     3   1    -0.51   0.30   0.00     0.00   0.00   0.70     0.08  -0.03   0.00
     4   1    -0.51  -0.12   0.16     0.37   0.34   0.05    -0.07   0.12   0.11
     5   1    -0.51  -0.12  -0.16    -0.37  -0.34   0.05    -0.07   0.12  -0.11
     6  17     0.00   0.00   0.00     0.00   0.00   0.00     0.00   0.00   0.00
     7   1     0.02   0.07  -0.03     0.04  -0.01   0.00     0.34  -0.42   0.41
     8   1     0.02   0.07   0.03    -0.04   0.01   0.00     0.34  -0.42  -0.41
                     13                     14                     15
                     A'                     A'                     A'
 Frequencies --   1525.3030              3085.8088              3134.7827
 Red. masses --      1.0507                 1.0360                 1.0595
 Frc consts  --      1.4403                 5.8122                 6.1343
 IR Inten    --      2.7257                12.8389                10.8866
  Atom  AN      X      Y      Z        X      Y      Z        X      Y      Z
     1   6     0.00  -0.05   0.00    -0.05  -0.01   0.00     0.00   0.02   0.00
     2   6     0.01  -0.04   0.00     0.00   0.00   0.00     0.04  -0.05   0.00
     3   1     0.30  -0.18   0.00     0.30   0.63   0.00    -0.07  -0.15   0.00
     4   1    -0.17   0.48   0.38     0.14  -0.26   0.41     0.03  -0.05   0.10
     5   1    -0.17   0.48  -0.38     0.14  -0.26  -0.41     0.03  -0.05  -0.10
     6  17     0.00   0.00   0.00     0.00   0.00   0.00     0.00   0.00   0.00
     7   1    -0.04   0.13  -0.11     0.00   0.00   0.00    -0.22   0.31   0.57
     8   1    -0.04   0.13   0.11     0.00   0.00   0.00    -0.22   0.31  -0.57
                     16                     17                     18
                     A'                     A"                     A"
 Frequencies --   3163.1285              3169.4086              3191.4714
 Red. masses --      1.0979                 1.1053                 1.1089
 Frc consts  --      6.4719                 6.5418                 6.6548
 IR Inten    --     16.1031                 1.7166                10.3668
  Atom  AN      X      Y      Z        X      Y      Z        X      Y      Z
     1   6     0.00   0.09   0.00     0.00   0.00  -0.08     0.00   0.00   0.05
     2   6    -0.01   0.01   0.00     0.00   0.00   0.06     0.00   0.00   0.08
     3   1    -0.30  -0.62   0.00     0.00   0.00  -0.02     0.00   0.00   0.01
     4   1     0.14  -0.23   0.40     0.17  -0.29   0.46    -0.12   0.21  -0.33
     5   1     0.14  -0.23  -0.40    -0.17   0.29   0.46     0.12  -0.21  -0.33
     6  17     0.00   0.00   0.00     0.00   0.00   0.00     0.00   0.00   0.00
     7   1     0.05  -0.08  -0.14     0.13  -0.20  -0.33     0.19  -0.27  -0.47
     8   1     0.05  -0.08   0.14    -0.13   0.20  -0.33    -0.19   0.27  -0.47

 -------------------
 - Thermochemistry -
 -------------------
 Temperature   298.150 Kelvin.  Pressure   1.00000 Atm.
 Atom     1 has atomic number  6 and mass  12.00000
 Atom     2 has atomic number  6 and mass  12.00000
 Atom     3 has atomic number  1 and mass   1.00783
 Atom     4 has atomic number  1 and mass   1.00783
 Atom     5 has atomic number  1 and mass   1.00783
 Atom     6 has atomic number 17 and mass  34.96885
 Atom     7 has atomic number  1 and mass   1.00783
 Atom     8 has atomic number  1 and mass   1.00783
 Molecular mass:    64.00798 amu.
 Principal axes and moments of inertia in atomic units:
                           1         2         3
     Eigenvalues --    56.69531 323.63445 357.92547
           X            0.79929  -0.60095   0.00000
           Y            0.60095   0.79929   0.00000
           Z            0.00000   0.00000   1.00000
 This molecule is an asymmetric top.
 Rotational symmetry number  1.
 Rotational temperatures (Kelvin)      1.52771     0.26763     0.24199
 Rotational constants (GHZ):          31.83228     5.57648     5.04223
 Zero-point vibrational energy     177680.8 (Joules/Mol)
                                   42.46673 (Kcal/Mol)
 Warning -- explicit consideration of   2 degrees of freedom as
           vibrations may cause significant error
 Vibrational temperatures:    383.13   486.87  1026.43  1150.17  1457.79
          (Kelvin)           1578.48  1604.77  1868.20  1915.21  2053.19
                             2179.26  2189.13  2194.57  4439.79  4510.25
                             4551.03  4560.07  4591.81
 
 Zero-point correction=                           0.067675 (Hartree/Particle)
 Thermal correction to Energy=                    0.071657
 Thermal correction to Enthalpy=                  0.072601
 Thermal correction to Gibbs Free Energy=         0.041510
 Sum of electronic and zero-point Energies=           -538.764441
 Sum of electronic and thermal Energies=              -538.760459
 Sum of electronic and thermal Enthalpies=            -538.759515
 Sum of electronic and thermal Free Energies=         -538.790606
 
                     E (Thermal)             CV                S
                      KCal/Mol        Cal/Mol-Kelvin    Cal/Mol-Kelvin
 Total                   44.965             12.252             65.437
 Electronic               0.000              0.000              0.000
 Translational            0.889              2.981             38.388
 Rotational               0.889              2.981             23.400
 Vibrational             43.188              6.290              3.648
 Vibration     1          0.672              1.735              1.620
 Vibration     2          0.719              1.599              1.220
                       Q            Log10(Q)             Ln(Q)
 Total Bot       0.806815D-19        -19.093226        -43.963778
 Total V=0       0.108409D+13         12.035066         27.711763
 Vib (Bot)       0.138173D-30        -30.859576        -71.056800
 Vib (Bot)    1  0.727117D+00         -0.138396         -0.318668
 Vib (Bot)    2  0.549290D+00         -0.260198         -0.599129
 Vib (V=0)       0.185659D+01          0.268716          0.618740
 Vib (V=0)    1  0.138244D+01          0.140646          0.323850
 Vib (V=0)    2  0.124278D+01          0.094394          0.217349
 Electronic      0.100000D+01          0.000000          0.000000
 Translational   0.201283D+08          7.303806         16.817636
 Rotational      0.290097D+05          4.462544         10.275387
 ***** Axes restored to original set *****
 -------------------------------------------------------------------
 Center     Atomic                   Forces (Hartrees/Bohr)
 Number     Number              X              Y              Z
 -------------------------------------------------------------------
      1        6           0.000221439    0.000000000    0.000013165
      2        6          -0.000637594    0.000000000    0.000260738
      3        1          -0.000134320    0.000000000   -0.000011973
      4        1          -0.000021778    0.000019133   -0.000072239
      5        1          -0.000021778   -0.000019133   -0.000072239
      6       17           0.000301059    0.000000000   -0.000142204
      7        1           0.000146486    0.000090470    0.000012377
      8        1           0.000146486   -0.000090470    0.000012377
 -------------------------------------------------------------------
 Cartesian Forces:  Max     0.000637594 RMS     0.000173742
 FormGI is forming the generalized inverse of G from B-inverse, IUseBI=4.

 GradGradGradGradGradGradGradGradGradGradGradGradGradGradGradGradGradGrad
 Berny optimization.
 Internal  Forces:  Max     0.000331994 RMS     0.000088433
 Search for a local minimum.
 Step number   1 out of a maximum of    2
 All quantities printed in internal units (Hartrees-Bohrs-Radians)
 Second derivative matrix not updated -- analytic derivatives used.
 ITU=  0
     Eigenvalues ---    0.00294   0.04402   0.04564   0.04569   0.06219
     Eigenvalues ---    0.12431   0.12698   0.12710   0.14134   0.17933
     Eigenvalues ---    0.21663   0.24972   0.32894   0.34722   0.34947
     Eigenvalues ---    0.35079   0.35660   0.36023
 Angle between quadratic step and forces=  39.67 degrees.
 Linear search not attempted -- first point.
 Iteration  1 RMS(Cart)=  0.00066340 RMS(Int)=  0.00000089
 Iteration  2 RMS(Cart)=  0.00000071 RMS(Int)=  0.00000056
 ClnCor:  largest displacement from symmetrization is 1.80D-12 for atom     5.
 Variable       Old X    -DE/DX   Delta X   Delta X   Delta X     New X
                                 (Linear)    (Quad)   (Total)
    R1        2.84299   0.00014   0.00000   0.00049   0.00049   2.84348
    R2        2.05700  -0.00012   0.00000  -0.00039  -0.00039   2.05661
    R3        2.05191   0.00002   0.00000   0.00011   0.00011   2.05201
    R4        2.05191   0.00002   0.00000   0.00011   0.00011   2.05201
    R5        3.37126  -0.00033   0.00000  -0.00232  -0.00232   3.36894
    R6        2.04737   0.00000   0.00000   0.00010   0.00010   2.04748
    R7        2.04737   0.00000   0.00000   0.00010   0.00010   2.04748
    A1        1.91226   0.00006   0.00000   0.00055   0.00055   1.91281
    A2        1.93099   0.00007   0.00000   0.00039   0.00039   1.93138
    A3        1.93099   0.00007   0.00000   0.00039   0.00039   1.93138
    A4        1.89731  -0.00006   0.00000  -0.00025  -0.00025   1.89707
    A5        1.89731  -0.00006   0.00000  -0.00025  -0.00025   1.89707
    A6        1.89429  -0.00009   0.00000  -0.00088  -0.00088   1.89340
    A7        1.93549  -0.00002   0.00000   0.00056   0.00056   1.93604
    A8        1.95131   0.00000   0.00000  -0.00059  -0.00059   1.95073
    A9        1.95131   0.00000   0.00000  -0.00059  -0.00059   1.95073
   A10        1.85806   0.00006   0.00000   0.00146   0.00146   1.85952
   A11        1.85806   0.00006   0.00000   0.00146   0.00146   1.85952
   A12        1.90494  -0.00010   0.00000  -0.00214  -0.00214   1.90280
    D1        3.14159   0.00000   0.00000   0.00000   0.00000   3.14159
    D2       -1.07088   0.00007   0.00000   0.00182   0.00182  -1.06906
    D3        1.07088  -0.00007   0.00000  -0.00182  -0.00182   1.06906
    D4       -1.04998   0.00001   0.00000   0.00029   0.00029  -1.04969
    D5        1.02073   0.00008   0.00000   0.00211   0.00211   1.02284
    D6       -3.12069  -0.00006   0.00000  -0.00153  -0.00153  -3.12222
    D7        1.04998  -0.00001   0.00000  -0.00029  -0.00029   1.04969
    D8        3.12069   0.00006   0.00000   0.00153   0.00153   3.12222
    D9       -1.02073  -0.00008   0.00000  -0.00211  -0.00211  -1.02284
         Item               Value     Threshold  Converged?
 Maximum Force            0.000332     0.000450     YES
 RMS     Force            0.000088     0.000300     YES
 Maximum Displacement     0.001796     0.001800     YES
 RMS     Displacement     0.000664     0.001200     YES
 Predicted change in Energy=-1.103419D-06
 Optimization completed.
    -- Stationary point found.
                           ----------------------------
                           !   Optimized Parameters   !
                           ! (Angstroms and Degrees)  !
 --------------------------                            --------------------------
 ! Name  Definition              Value          Derivative Info.                !
 --------------------------------------------------------------------------------
 ! R1    R(1,2)                  1.5044         -DE/DX =    0.0001              !
 ! R2    R(1,3)                  1.0885         -DE/DX =   -0.0001              !
 ! R3    R(1,4)                  1.0858         -DE/DX =    0.0                 !
 ! R4    R(1,5)                  1.0858         -DE/DX =    0.0                 !
 ! R5    R(2,6)                  1.784          -DE/DX =   -0.0003              !
 ! R6    R(2,7)                  1.0834         -DE/DX =    0.0                 !
 ! R7    R(2,8)                  1.0834         -DE/DX =    0.0                 !
 ! A1    A(2,1,3)              109.5647         -DE/DX =    0.0001              !
 ! A2    A(2,1,4)              110.6376         -DE/DX =    0.0001              !
 ! A3    A(2,1,5)              110.6376         -DE/DX =    0.0001              !
 ! A4    A(3,1,4)              108.708          -DE/DX =   -0.0001              !
 ! A5    A(3,1,5)              108.708          -DE/DX =   -0.0001              !
 ! A6    A(4,1,5)              108.5346         -DE/DX =   -0.0001              !
 ! A7    A(1,2,6)              110.8951         -DE/DX =    0.0                 !
 ! A8    A(1,2,7)              111.802          -DE/DX =    0.0                 !
 ! A9    A(1,2,8)              111.802          -DE/DX =    0.0                 !
 ! A10   A(6,2,7)              106.459          -DE/DX =    0.0001              !
 ! A11   A(6,2,8)              106.459          -DE/DX =    0.0001              !
 ! A12   A(7,2,8)              109.1452         -DE/DX =   -0.0001              !
 ! D1    D(3,1,2,6)            180.0            -DE/DX =    0.0                 !
 ! D2    D(3,1,2,7)            -61.3571         -DE/DX =    0.0001              !
 ! D3    D(3,1,2,8)             61.3571         -DE/DX =   -0.0001              !
 ! D4    D(4,1,2,6)            -60.1594         -DE/DX =    0.0                 !
 ! D5    D(4,1,2,7)             58.4834         -DE/DX =    0.0001              !
 ! D6    D(4,1,2,8)           -178.8023         -DE/DX =   -0.0001              !
 ! D7    D(5,1,2,6)             60.1594         -DE/DX =    0.0                 !
 ! D8    D(5,1,2,7)            178.8023         -DE/DX =    0.0001              !
 ! D9    D(5,1,2,8)            -58.4834         -DE/DX =   -0.0001              !
 --------------------------------------------------------------------------------
 GradGradGradGradGradGradGradGradGradGradGradGradGradGradGradGradGradGrad

 1\1\GINC-N354\Freq\RMP2-Full\Aug-CC-pVTZ\C2H5Cl1\RDJ3\07-Feb-2014\0\\#
 N Geom=AllCheck Guess=TCheck SCRF=Check GenChk RMP2-Full/Aug-CC-pVTZ F
 req\\c2h5cl Ethyl chloride casno=75003 state=1 config=1 method=2 basis
 =18\\0,1\C,0.000446487,0.,0.0078171579\C,0.0013760014,0.,1.5122635519\
 H,1.0258902642,0.,-0.3573281391\H,-0.5054111012,-0.8814170142,-0.37457
 48139\H,-0.5054111012,0.8814170142,-0.3745748139\Cl,-1.6648999,0.,2.14
 9569791\H,0.4838157728,-0.882828571,1.9143496103\H,0.4838157728,0.8828
 28571,1.9143496103\\Version=EM64L-G09RevD.01\State=1-A'\HF=-538.200337
 6\MP2=-538.8321163\RMSD=7.158e-10\RMSF=1.737e-04\ZeroPoint=0.067675\Th
 ermal=0.0716569\Dipole=0.7329253,0.,-0.3579888\DipoleDeriv=-0.0152334,
 0.,0.074295,0.,0.0616618,0.,0.0174161,0.,-0.0486982,0.6140772,0.,-0.30
 80857,0.,0.1171804,0.,-0.2454725,0.,0.3148952,-0.0906967,0.,0.0737143,
 0.,0.0861042,0.,0.0746376,0.,-0.0094067,0.0432894,-0.0652619,-0.046493
 8,-0.053549,-0.0373667,-0.0525525,-0.0038329,-0.0106441,0.0218215,0.04
 32894,0.0652619,-0.0464938,0.053549,-0.0373667,0.0525525,-0.0038329,0.
 0106441,0.0218215,-0.4693518,0.,0.2043729,0.,-0.1809908,0.,0.1345077,0
 .,-0.2979401,-0.062687,0.0451561,0.0243456,0.068423,-0.0046111,0.04631
 25,0.0132885,0.0346135,-0.0012466,-0.062687,-0.0451561,0.0243456,-0.06
 8423,-0.0046111,-0.0463125,0.0132885,-0.0346135,-0.0012466\Polar=45.06
 7179,0.,35.8568878,-5.3026358,0.,42.7270886\Quadrupole=0.4015122,0.074
 9584,-0.4764706,0.,0.2942782,0.\PG=CS [SG(C2H1Cl1),X(H4)]\NImag=0\\0.5
 9077304,0.,0.59571006,0.01012291,0.,0.49945537,-0.07070500,0.,-0.01020
 086,0.40328885,0.,-0.08720675,0.,0.,0.61144486,-0.01325622,0.,-0.22577
 527,0.08064401,0.,0.48112986,-0.28924818,0.,0.08336852,-0.00086402,0.,
 -0.00043951,0.31336656,0.,-0.04823306,0.,0.,-0.00195556,0.,0.,0.046881
 61,0.08208951,0.,-0.07814387,0.03152679,0.,-0.00891249,-0.09293921,0.,
 0.08445593,-0.10827778,-0.10533496,-0.04557611,-0.00140933,0.00074694,
 0.00145506,-0.01311029,-0.02532964,-0.01156013,0.11334610,-0.10521260,
 -0.23391434,-0.07761451,0.00076569,0.00147412,0.00069335,0.00163518,0.
 00105781,0.00159876,0.11529625,0.24970880,-0.04251388,-0.07469210,-0.0
 7852996,-0.01743485,-0.03118164,-0.01516862,0.00447193,0.01060228,0.00
 342680,0.04895749,0.08425373,0.08963383,-0.10827778,0.10533496,-0.0455
 7611,-0.00140933,-0.00074694,0.00145506,-0.01311029,0.02532964,-0.0115
 6013,0.00748457,-0.01352141,0.00684399,0.11334610,0.10521260,-0.233914
 34,0.07761451,-0.00076569,0.00147412,-0.00069335,-0.00163518,0.0010578
 1,-0.00159876,0.01352141,-0.02050333,0.00938462,-0.11529625,0.24970880
 ,-0.04251388,0.07469210,-0.07852996,-0.01743485,0.03118164,-0.01516862
 ,0.00447193,-0.01060228,0.00342680,0.00684399,-0.00938462,0.00355493,0
 .04895749,-0.08425373,0.08963383,-0.01847257,0.,0.00841725,-0.13808695
 ,0.,0.03223725,0.00230148,0.,0.00333947,0.00146855,0.00081816,-0.00091
 156,0.00146855,-0.00081816,-0.00091156,0.20287254,0.,0.00167628,0.,0.,
 -0.03653699,0.,0.,0.00128549,0.,0.00074348,0.00007096,0.00056422,-0.00
 074348,0.00007096,-0.00056422,0.,0.02370856,0.03704134,0.,-0.01182528,
 0.03206224,0.,-0.04323950,0.00009038,0.,-0.00681735,-0.00030609,0.0000
 8367,0.00231408,-0.00030609,-0.00008367,0.00231408,-0.06629181,0.,0.05
 415862,0.00210413,-0.00090286,-0.00027780,-0.09540712,0.10042825,-0.05
 104783,0.00033237,-0.00005274,-0.00044815,-0.00037130,0.00035228,0.000
 19603,0.00086947,0.00013354,0.00039085,-0.02577581,0.01818014,-0.00114
 498,0.10937669,-0.00160880,0.00294108,-0.00060759,0.10123678,-0.244346
 89,0.08355675,-0.00005408,-0.00004706,0.00060622,-0.00021554,0.0007484
 1,0.00022420,-0.00057207,0.00135757,-0.00084470,-0.00379137,0.00486237
 ,-0.00114960,-0.10656676,0.25550097,-0.01548489,0.02919593,-0.01332551
 ,-0.04958124,0.08230428,-0.08643269,0.00048798,-0.00021967,0.00128208,
 -0.00019341,-0.00029571,0.00162166,0.00037922,-0.00066534,-0.00685273,
 0.01206047,-0.00835166,0.00154767,0.04629840,-0.09187656,0.09672876,0.
 00210413,0.00090286,-0.00027780,-0.09540712,-0.10042825,-0.05104783,0.
 00033237,0.00005274,-0.00044815,0.00086947,-0.00013354,0.00039085,-0.0
 0037130,-0.00035228,0.00019603,-0.02577581,-0.01818014,-0.00114498,0.0
 0887156,0.01157185,0.00603347,0.10937669,0.00160880,0.00294108,0.00060
 759,-0.10123678,-0.24434689,-0.08355675,0.00005408,-0.00004706,-0.0006
 0622,0.00057207,0.00135757,0.00084470,0.00021554,0.00074841,-0.0002242
 0,0.00379137,0.00486237,0.00114960,-0.01157185,-0.02101645,-0.01009127
 ,0.10656676,0.25550097,-0.01548489,-0.02919593,-0.01332551,-0.04958124
 ,-0.08230428,-0.08643269,0.00048798,0.00021967,0.00128208,0.00037922,0
 .00066534,-0.00685273,-0.00019341,0.00029571,0.00162166,0.01206047,0.0
 0835166,0.00154767,0.00603347,0.01009127,0.00543075,0.04629840,0.09187
 656,0.09672876\\-0.00022144,0.,-0.00001316,0.00063759,0.,-0.00026074,0
 .00013432,0.,0.00001197,0.00002178,-0.00001913,0.00007224,0.00002178,0
 .00001913,0.00007224,-0.00030106,0.,0.00014220,-0.00014649,-0.00009047
 ,-0.00001238,-0.00014649,0.00009047,-0.00001238\\\@


    WHAT WE HAVE LEARNED
 IS LIKE A HANDFUL OF EARTH;
  WHAT WE HAVE YET TO LEARN
   IS LIKE THE WHOLE WORLD.

         -- AVVAYIAR
 Job cpu time:       0 days  6 hours  7 minutes 24.9 seconds.
 File lengths (MBytes):  RWF=  13772 Int=      0 D2E=      0 Chk=      7 Scr=      1
 Normal termination of Gaussian 09 at Fri Feb  7 06:08:07 2014.
